2 Na-montmorillonite layers with three water-layers
 4112
    1MMT    Mgo    1   0.266   0.195   4.156
    1MMT    Sit    2   0.348   0.023   0.259
    1MMT    Sit    3   0.353   0.321   0.262
    1MMT    Omg    4   0.329   0.032   0.107
    1MMT    Omg    5   0.371   0.319   0.110
    1MMT   Ohmg    6   0.095   0.211   0.102
    1MMT     Ob    7   3.064   0.381   0.327
    1MMT     Ob    8   0.337   0.173   0.320
    1MMT     Ob    9   0.227   0.411   0.303
    1MMT      H   10   0.048   0.126   0.117
    1MMT    Alo   11   0.010   0.646   4.156
    1MMT    Sit   12   0.086   0.471   0.265
    1MMT    Sit   13   0.089   0.766   0.263
    1MMT     Op   14   0.066   0.483   0.110
    1MMT    Omg   15   0.101   0.758   0.111
    1MMT   Ohmg   16   0.372   0.653   0.099
    1MMT     Ob   17   0.224   0.834   0.323
    1MMT     Ob   18   0.074   0.619   0.325
    1MMT     Ob   19   3.061   0.857   0.305
    1MMT      H   20   0.322   0.569   0.110
    1MMT    Mgo   21   0.266   0.793   4.157
    1MMT    Sit   22   0.193   0.060   3.893
    1MMT    Sit   23   0.177   0.666   3.894
    1MMT    Omg   24   0.209   0.042   4.044
    1MMT    Omg   25   0.161   0.667   4.045
    1MMT   Ohmg   26   0.436   0.776   4.050
    1MMT     Ob   27   0.562   0.604   3.826
    1MMT     Ob   28   0.196   0.814   3.836
    1MMT     Ob   29   0.303   0.575   3.852
    1MMT      H   30   0.482   0.862   4.045
    1MMT    Alo   31   0.012   0.342   0.000
    1MMT    Sit   32   0.445   0.515   3.889
    1MMT    Sit   33   0.442   0.220   3.892
    1MMT     Op   34   0.465   0.502   4.044
    1MMT    Omg   35   0.432   0.228   4.044
    1MMT   Ohmg   36   0.160   0.334   4.054
    1MMT     Ob   37   0.306   0.155   3.833
    1MMT     Ob   38   0.458   0.365   3.829
    1MMT     Ob   39   0.566   0.125   3.851
    1MMT      H   40   0.208   0.419   4.041
    1MMT    Alo   41   0.783   0.195   4.153
    1MMT    Sit   42   0.863   0.026   0.260
    1MMT    Sit   43   0.865   0.321   0.264
    1MMT     Op   44   0.844   0.037   0.104
    1MMT     Op   45   0.879   0.313   0.107
    1MMT     Oh   46   0.621   0.203   0.098
    1MMT     Ob   47   0.487   0.384   0.325
    1MMT     Ob   48   0.846   0.173   0.321
    1MMT     Ob   49   0.742   0.414   0.301
    1MMT      H   50   0.567   0.121   0.105
    1MMT    Alo   51   0.520   0.646   4.151
    1MMT    Sit   52   0.601   0.475   0.262
    1MMT    Sit   53   0.606   0.773   0.262
    1MMT     Op   54   0.585   0.483   0.106
    1MMT     Op   55   0.621   0.767   0.106
    1MMT   Ohmg   56   0.866   0.662   0.103
    1MMT     Ob   57   0.741   0.833   0.323
    1MMT     Ob   58   0.587   0.624   0.320
    1MMT     Ob   59   0.483   0.865   0.301
    1MMT      H   60   0.818   0.578   0.119
    1MMT    Alo   61   0.783   0.791   4.158
    1MMT    Sit   62   0.708   0.066   3.886
    1MMT    Sit   63   0.700   0.665   3.890
    1MMT     Op   64   0.727   0.052   4.042
    1MMT     Op   65   0.682   0.670   4.045
    1MMT   Ohmg   66   0.932   0.782   4.055
    1MMT     Ob   67   1.080   0.601   3.835
    1MMT     Ob   68   0.716   0.811   3.833
    1MMT     Ob   69   0.820   0.569   3.854
    1MMT      H   70   0.982   0.865   4.034
    1MMT    Alo   71   0.522   0.343   4.157
    1MMT    Sit   72   0.964   0.510   3.892
    1MMT    Sit   73   0.959   0.216   3.887
    1MMT    Omg   74   0.978   0.491   4.044
    1MMT     Op   75   0.942   0.222   4.044
    1MMT     Oh   76   0.690   0.329   4.055
    1MMT     Ob   77   0.825   0.153   3.826
    1MMT     Ob   78   0.978   0.360   3.828
    1MMT     Ob   79   1.083   0.121   3.854
    1MMT      H   80   0.737   0.415   4.044
    1MMT    Alo   81   1.300   0.190   0.001
    1MMT    Sit   82   1.379   0.028   0.262
    1MMT    Sit   83   1.380   0.321   0.269
    1MMT    Omg   84   1.364   0.044   0.111
    1MMT     Op   85   1.397   0.312   0.109
    1MMT     Oh   86   1.141   0.202   0.099
    1MMT     Ob   87   0.999   0.382   0.323
    1MMT     Ob   88   1.363   0.174   0.327
    1MMT     Ob   89   1.258   0.414   0.300
    1MMT      H   90   1.094   0.116   0.111
    1MMT    Mgo   91   1.036   0.644   4.157
    1MMT    Sit   92   1.115   0.473   0.261
    1MMT    Sit   93   1.123   0.771   0.263
    1MMT    Omg   94   1.096   0.481   0.108
    1MMT    Omg   95   1.142   0.768   0.111
    1MMT     Oh   96   1.393   0.651   0.101
    1MMT     Ob   97   1.257   0.834   0.326
    1MMT     Ob   98   1.102   0.623   0.320
    1MMT     Ob   99   1.000   0.865   0.302
    1MMT      H  100   1.339   0.570   0.119
    1MMT    Alo  101   1.294   0.789   0.000
    1MMT    Sit  102   1.226   0.064   3.896
    1MMT    Sit  103   1.216   0.666   3.894
    1MMT    Omg  104   1.245   0.056   4.047
    1MMT    Omg  105   1.204   0.675   4.047
    1MMT     Oh  106   1.462   0.774   4.057
    1MMT     Ob  107   1.596   0.599   3.833
    1MMT     Ob  108   1.238   0.810   3.831
    1MMT     Ob  109   1.338   0.569   3.856
    1MMT      H  110   1.507   0.862   4.044
    1MMT    Alo  111   1.040   0.349   4.154
    1MMT    Sit  112   1.480   0.511   3.891
    1MMT    Sit  113   1.476   0.217   3.889
    1MMT     Op  114   1.498   0.497   4.049
    1MMT     Op  115   1.461   0.223   4.046
    1MMT     Oh  116   1.200   0.335   4.055
    1MMT     Ob  117   1.341   0.152   3.828
    1MMT     Ob  118   1.493   0.361   3.832
    1MMT     Ob  119   1.599   0.122   3.852
    1MMT      H  120   1.245   0.422   4.044
    1MMT    Alo  121   1.816   0.194   4.156
    1MMT    Sit  122   1.897   0.024   0.262
    1MMT    Sit  123   1.896   0.320   0.267
    1MMT     Op  124   1.876   0.037   0.105
    1MMT     Op  125   1.910   0.311   0.109
    1MMT     Oh  126   1.653   0.204   0.099
    1MMT     Ob  127   1.516   0.381   0.326
    1MMT     Ob  128   1.877   0.172   0.324
    1MMT     Ob  129   1.773   0.411   0.303
    1MMT      H  130   1.601   0.121   0.112
    1MMT    Alo  131   1.553   0.641   0.000
    1MMT    Sit  132   1.631   0.471   0.268
    1MMT    Sit  133   1.637   0.765   0.267
    1MMT     Op  134   1.614   0.482   0.110
    1MMT     Op  135   1.650   0.758   0.110
    1MMT   Ohmg  136   1.900   0.661   0.104
    1MMT     Ob  137   1.772   0.831   0.324
    1MMT     Ob  138   1.621   0.619   0.326
    1MMT     Ob  139   1.514   0.857   0.302
    1MMT      H  140   1.851   0.582   0.134
    1MMT    Alo  141   1.816   0.788   4.158
    1MMT    Sit  142   1.741   0.065   3.887
    1MMT    Sit  143   1.731   0.661   3.891
    1MMT     Op  144   1.760   0.052   4.044
    1MMT     Op  145   1.715   0.667   4.048
    1MMT   Ohmg  146   1.966   0.780   4.054
    1MMT     Ob  147   2.113   0.603   3.836
    1MMT     Ob  148   1.749   0.807   3.833
    1MMT     Ob  149   1.854   0.566   3.856
    1MMT      H  150   2.011   0.866   4.037
    1MMT    Alo  151   1.557   0.342   0.001
    1MMT    Sit  152   1.996   0.509   3.895
    1MMT    Sit  153   1.992   0.215   3.889
    1MMT    Omg  154   2.012   0.491   4.046
    1MMT     Op  155   1.975   0.223   4.046
    1MMT     Oh  156   1.720   0.330   4.057
    1MMT     Ob  157   1.857   0.156   3.828
    1MMT     Ob  158   2.014   0.360   3.830
    1MMT     Ob  159   2.115   0.121   3.855
    1MMT      H  160   1.768   0.416   4.044
    1MMT    Alo  161   2.333   0.190   4.158
    1MMT    Sit  162   2.412   0.027   0.259
    1MMT    Sit  163   2.413   0.321   0.268
    1MMT    Omg  164   2.398   0.047   0.108
    1MMT     Op  165   2.430   0.316   0.111
    1MMT     Oh  166   2.175   0.202   0.099
    1MMT     Ob  167   2.032   0.381   0.324
    1MMT     Ob  168   2.395   0.175   0.326
    1MMT     Ob  169   2.289   0.412   0.304
    1MMT      H  170   2.128   0.117   0.115
    1MMT    Mgo  171   2.069   0.643   0.001
    1MMT    Sit  172   2.146   0.473   0.262
    1MMT    Sit  173   2.155   0.771   0.265
    1MMT    Omg  174   2.130   0.481   0.110
    1MMT    Omg  175   2.176   0.769   0.114
    1MMT     Oh  176   2.424   0.653   0.105
    1MMT     Ob  177   2.289   0.835   0.331
    1MMT     Ob  178   2.138   0.623   0.322
    1MMT     Ob  179   2.031   0.865   0.304
    1MMT      H  180   2.371   0.571   0.117
    1MMT    Alo  181   2.326   0.790   0.005
    1MMT    Sit  182   2.259   0.064   3.894
    1MMT    Sit  183   2.248   0.669   3.898
    1MMT    Omg  184   2.277   0.055   4.045
    1MMT    Omg  185   2.237   0.675   4.050
    1MMT     Oh  186   2.494   0.777   4.062
    1MMT     Ob  187   2.627   0.605   3.833
    1MMT     Ob  188   2.266   0.813   3.836
    1MMT     Ob  189   2.370   0.572   3.857
    1MMT      H  190   2.542   0.861   4.042
    1MMT    Alo  191   2.073   0.348   4.155
    1MMT    Sit  192   2.513   0.514   3.893
    1MMT    Sit  193   2.508   0.218   3.891
    1MMT     Op  194   2.531   0.502   4.050
    1MMT     Op  195   2.492   0.226   4.048
    1MMT     Oh  196   2.232   0.336   4.055
    1MMT     Ob  197   2.374   0.155   3.831
    1MMT     Ob  198   2.527   0.365   3.834
    1MMT     Ob  199   2.630   0.124   3.856
    1MMT      H  200   2.278   0.423   4.050
    1MMT    Alo  201   2.847   0.195   4.158
    1MMT    Sit  202   2.929   0.024   0.266
    1MMT    Sit  203   2.928   0.319   0.269
    1MMT     Op  204   2.909   0.036   0.109
    1MMT     Op  205   2.939   0.313   0.111
    1MMT     Oh  206   2.684   0.204   0.101
    1MMT     Ob  207   2.547   0.384   0.329
    1MMT     Ob  208   2.912   0.172   0.326
    1MMT     Ob  209   2.805   0.411   0.307
    1MMT      H  210   2.632   0.120   0.112
    1MMT    Alo  211   2.586   0.644   0.002
    1MMT    Sit  212   2.664   0.473   0.270
    1MMT    Sit  213   2.669   0.769   0.270
    1MMT     Op  214   2.647   0.484   0.113
    1MMT     Op  215   2.682   0.760   0.112
    1MMT     Oh  216   2.941   0.657   0.097
    1MMT     Ob  217   2.803   0.833   0.328
    1MMT     Ob  218   2.651   0.622   0.328
    1MMT     Ob  219   2.546   0.861   0.308
    1MMT      H  220   2.893   0.572   0.110
    1MMT    Alo  221   2.847   0.797   4.157
    1MMT    Sit  222   2.773   0.066   3.890
    1MMT    Sit  223   2.764   0.664   3.890
    1MMT     Op  224   2.792   0.053   4.047
    1MMT     Op  225   2.749   0.671   4.049
    1MMT     Oh  226   3.010   0.784   4.055
    1MMT     Ob  227   0.044   0.603   3.830
    1MMT     Ob  228   2.788   0.808   3.834
    1MMT     Ob  229   2.883   0.565   3.855
    1MMT      H  230   3.059   0.869   4.047
    1MMT    Alo  231   2.589   0.344   0.003
    1MMT    Sit  232   3.027   0.511   3.891
    1MMT    Sit  233   3.024   0.217   3.891
    1MMT     Op  234   3.043   0.501   4.047
    1MMT     Op  235   3.006   0.224   4.048
    1MMT     Oh  236   2.750   0.331   4.059
    1MMT     Ob  237   2.887   0.157   3.831
    1MMT     Ob  238   3.044   0.362   3.832
    1MMT     Ob  239   0.048   0.118   3.856
    1MMT      H  240   2.798   0.415   4.039
    1MMT    Alo  241   0.264   1.088   0.006
    1MMT    Sit  242   0.340   0.927   0.264
    1MMT    Sit  243   0.349   1.221   0.272
    1MMT    Omg  244   0.325   0.946   0.113
    1MMT     Op  245   0.363   1.213   0.114
    1MMT     Oh  246   0.101   1.101   0.109
    1MMT     Ob  247   3.065   1.286   0.332
    1MMT     Ob  248   0.329   1.075   0.331
    1MMT     Ob  249   0.227   1.316   0.308
    1MMT      H  250   0.053   1.016   0.115
    1MMT    Alo  251   0.013   1.543   4.154
    1MMT    Sit  252   0.086   1.374   0.269
    1MMT    Sit  253   0.093   1.668   0.261
    1MMT     Op  254   0.068   1.383   0.112
    1MMT    Omg  255   0.103   1.660   0.109
    1MMT   Ohmg  256   0.373   1.552   0.103
    1MMT     Ob  257   0.229   1.734   0.318
    1MMT     Ob  258   0.074   1.524   0.325
    1MMT     Ob  259   3.066   1.763   0.302
    1MMT      H  260   0.324   1.468   0.117
    1MMT    Mgo  261   0.271   1.690   4.157
    1MMT    Sit  262   0.188   0.966   3.899
    1MMT    Sit  263   0.185   1.560   3.894
    1MMT    Omg  264   0.207   0.954   4.050
    1MMT    Omg  265   0.165   1.565   4.045
    1MMT   Ohmg  266   0.441   1.670   4.053
    1MMT     Ob  267   0.566   1.502   3.835
    1MMT     Ob  268   0.207   1.708   3.834
    1MMT     Ob  269   0.308   1.466   3.856
    1MMT      H  270   0.491   1.754   4.038
    1MMT    Alo  271   0.005   1.238   0.005
    1MMT    Sit  272   0.451   1.410   3.893
    1MMT    Sit  273   0.441   1.116   3.894
    1MMT     Op  274   0.468   1.397   4.049
    1MMT     Op  275   0.429   1.124   4.051
    1MMT     Oh  276   0.169   1.227   4.065
    1MMT     Ob  277   0.303   1.057   3.837
    1MMT     Ob  278   0.467   1.260   3.834
    1MMT     Ob  279   0.560   1.017   3.857
    1MMT      H  280   0.216   1.313   4.052
    1MMT    Alo  281   0.782   1.092   0.001
    1MMT    Sit  282   0.858   0.924   0.266
    1MMT    Sit  283   0.865   1.219   0.268
    1MMT     Op  284   0.840   0.939   0.110
    1MMT     Op  285   0.879   1.211   0.111
    1MMT     Oh  286   0.618   1.106   0.102
    1MMT     Ob  287   0.485   1.283   0.328
    1MMT     Ob  288   0.844   1.074   0.326
    1MMT     Ob  289   0.743   1.316   0.304
    1MMT      H  290   0.569   1.022   0.119
    1MMT    Alo  291   0.524   1.543   4.157
    1MMT    Sit  292   0.601   1.372   0.267
    1MMT    Sit  293   0.608   1.669   0.263
    1MMT     Op  294   0.584   1.381   0.111
    1MMT     Op  295   0.623   1.664   0.109
    1MMT   Ohmg  296   0.870   1.560   0.107
    1MMT     Ob  297   0.745   1.733   0.325
    1MMT     Ob  298   0.588   1.524   0.323
    1MMT     Ob  299   0.488   1.767   0.301
    1MMT      H  300   0.828   1.471   0.110
    1MMT    Alo  301   0.790   1.686   0.002
    1MMT    Sit  302   0.705   0.960   3.892
    1MMT    Sit  303   0.705   1.560   3.894
    1MMT     Op  304   0.722   0.950   4.049
    1MMT     Op  305   0.688   1.568   4.050
    1MMT   Ohmg  306   0.938   1.677   4.057
    1MMT     Ob  307   1.083   1.496   3.838
    1MMT     Ob  308   0.726   1.707   3.835
    1MMT     Ob  309   0.824   1.463   3.860
    1MMT      H  310   0.989   1.757   4.034
    1MMT    Alo  311   0.525   1.241   0.002
    1MMT    Sit  312   0.967   1.403   3.897
    1MMT    Sit  313   0.955   1.110   3.890
    1MMT    Omg  314   0.981   1.386   4.049
    1MMT     Op  315   0.941   1.118   4.048
    1MMT     Oh  316   0.687   1.227   4.058
    1MMT     Ob  317   0.818   1.052   3.833
    1MMT     Ob  318   0.979   1.255   3.833
    1MMT     Ob  319   1.076   1.014   3.854
    1MMT      H  320   0.738   1.310   4.041
    1MMT    Alo  321   1.301   1.093   4.152
    1MMT    Sit  322   1.375   0.919   0.263
    1MMT    Sit  323   1.381   1.215   0.258
    1MMT     Op  324   1.358   0.930   0.107
    1MMT    Omg  325   1.393   1.208   0.107
    1MMT     Oh  326   1.136   1.105   0.095
    1MMT     Ob  327   0.998   1.284   0.326
    1MMT     Ob  328   1.368   1.069   0.320
    1MMT     Ob  329   1.257   1.304   0.302
    1MMT      H  330   1.090   1.019   0.107
    1MMT    Mgo  331   1.042   1.539   0.002
    1MMT    Sit  332   1.119   1.369   0.262
    1MMT    Sit  333   1.133   1.667   0.265
    1MMT    Omg  334   1.100   1.379   0.111
    1MMT    Omg  335   1.149   1.667   0.113
    1MMT     Oh  336   1.395   1.550   0.105
    1MMT     Ob  337   1.266   1.732   0.328
    1MMT     Ob  338   1.115   1.520   0.322
    1MMT     Ob  339   1.005   1.760   0.303
    1MMT      H  340   1.346   1.464   0.114
    1MMT    Alo  341   1.299   1.685   0.002
    1MMT    Sit  342   1.220   0.960   3.888
    1MMT    Sit  343   1.220   1.561   3.897
    1MMT     Op  344   1.239   0.950   4.045
    1MMT    Omg  345   1.207   1.572   4.049
    1MMT     Oh  346   1.463   1.674   4.061
    1MMT     Ob  347   1.600   1.499   3.833
    1MMT     Ob  348   1.239   1.707   3.834
    1MMT     Ob  349   1.342   1.467   3.858
    1MMT      H  350   1.514   1.758   4.050
    1MMT    Alo  351   1.042   1.244   4.156
    1MMT    Sit  352   1.483   1.408   3.897
    1MMT    Sit  353   1.469   1.111   3.891
    1MMT    Omg  354   1.502   1.400   4.048
    1MMT    Omg  355   1.452   1.113   4.043
    1MMT     Oh  356   1.205   1.230   4.051
    1MMT     Ob  357   1.334   1.052   3.828
    1MMT     Ob  358   1.495   1.258   3.836
    1MMT     Ob  359   1.593   1.015   3.852
    1MMT      H  360   1.254   1.315   4.043
    1MMT    Alo  361   1.810   1.092   4.155
    1MMT    Sit  362   1.888   0.920   0.264
    1MMT    Sit  363   1.895   1.219   0.263
    1MMT     Op  364   1.872   0.932   0.108
    1MMT     Op  365   1.913   1.211   0.108
    1MMT   Ohmg  366   1.662   1.101   0.103
    1MMT     Ob  367   1.516   1.285   0.319
    1MMT     Ob  368   1.874   1.072   0.322
    1MMT     Ob  369   1.775   1.314   0.302
    1MMT      H  370   1.608   1.019   0.113
    1MMT    Alo  371   1.559   1.535   0.002
    1MMT    Sit  372   1.632   1.377   0.261
    1MMT    Sit  373   1.644   1.670   0.266
    1MMT    Omg  374   1.619   1.394   0.111
    1MMT     Op  375   1.656   1.663   0.110
    1MMT   Ohmg  376   1.904   1.560   0.104
    1MMT     Ob  377   1.780   1.731   0.325
    1MMT     Ob  378   1.622   1.525   0.328
    1MMT     Ob  379   1.523   1.766   0.303
    1MMT      H  380   1.853   1.476   0.116
    1MMT    Alo  381   1.822   1.687   0.001
    1MMT    Sit  382   1.734   0.956   3.891
    1MMT    Sit  383   1.736   1.562   3.893
    1MMT     Op  384   1.752   0.946   4.047
    1MMT     Op  385   1.720   1.569   4.048
    1MMT   Ohmg  386   1.972   1.678   4.054
    1MMT     Ob  387   2.117   1.490   3.833
    1MMT     Ob  388   1.754   1.708   3.833
    1MMT     Ob  389   1.858   1.469   3.855
    1MMT      H  390   2.023   1.761   4.044
    1MMT    Mgo  391   1.558   1.240   4.156
    1MMT    Sit  392   1.996   1.402   3.897
    1MMT    Sit  393   1.985   1.110   3.891
    1MMT    Omg  394   2.013   1.386   4.047
    1MMT     Op  395   1.974   1.114   4.047
    1MMT   Ohmg  396   1.729   1.219   4.053
    1MMT     Ob  397   1.853   1.044   3.830
    1MMT     Ob  398   2.000   1.255   3.832
    1MMT     Ob  399   2.114   1.023   3.852
    1MMT      H  400   1.775   1.306   4.045
    1MMT    Alo  401   2.328   1.092   0.001
    1MMT    Sit  402   2.406   0.923   0.270
    1MMT    Sit  403   2.412   1.218   0.270
    1MMT     Op  404   2.389   0.934   0.113
    1MMT     Op  405   2.426   1.213   0.114
    1MMT     Oh  406   2.170   1.102   0.101
    1MMT     Ob  407   2.032   1.278   0.324
    1MMT     Ob  408   2.396   1.073   0.328
    1MMT     Ob  409   2.289   1.310   0.307
    1MMT      H  410   2.120   1.017   0.110
    1MMT    Mgo  411   2.074   1.539   0.000
    1MMT    Sit  412   2.147   1.370   0.263
    1MMT    Sit  413   2.161   1.668   0.263
    1MMT    Omg  414   2.132   1.378   0.111
    1MMT    Omg  415   2.181   1.664   0.111
    1MMT     Oh  416   2.431   1.550   0.103
    1MMT     Ob  417   2.298   1.729   0.326
    1MMT     Ob  418   2.138   1.520   0.322
    1MMT     Ob  419   2.040   1.763   0.300
    1MMT      H  420   2.377   1.468   0.114
    1MMT    Alo  421   2.331   1.687   4.158
    1MMT    Sit  422   2.255   0.961   3.893
    1MMT    Sit  423   2.252   1.559   3.894
    1MMT     Op  424   2.271   0.951   4.050
    1MMT    Omg  425   2.240   1.569   4.046
    1MMT     Oh  426   2.497   1.674   4.058
    1MMT     Ob  427   2.632   1.499   3.833
    1MMT     Ob  428   2.268   1.704   3.829
    1MMT     Ob  429   2.376   1.467   3.855
    1MMT      H  430   2.541   1.762   4.044
    1MMT    Alo  431   2.071   1.243   4.157
    1MMT    Sit  432   2.518   1.408   3.895
    1MMT    Sit  433   2.508   1.111   3.895
    1MMT     Op  434   2.533   1.400   4.051
    1MMT     Op  435   2.489   1.119   4.053
    1MMT     Oh  436   2.234   1.227   4.057
    1MMT     Ob  437   2.372   1.050   3.836
    1MMT     Ob  438   2.530   1.258   3.838
    1MMT     Ob  439   2.627   1.013   3.863
    1MMT      H  440   2.279   1.314   4.043
    1MMT    Mgo  441   2.844   1.092   0.005
    1MMT    Sit  442   2.922   0.919   0.265
    1MMT    Sit  443   2.934   1.219   0.269
    1MMT    Omg  444   2.904   0.931   0.114
    1MMT    Omg  445   2.949   1.219   0.118
    1MMT   Ohmg  446   2.673   1.109   0.110
    1MMT     Ob  447   2.547   1.284   0.331
    1MMT     Ob  448   2.915   1.072   0.328
    1MMT     Ob  449   2.805   1.307   0.313
    1MMT      H  450   2.628   1.022   0.117
    1MMT    Alo  451   2.589   1.540   4.158
    1MMT    Sit  452   2.665   1.370   0.269
    1MMT    Sit  453   2.675   1.665   0.266
    1MMT     Op  454   2.650   1.381   0.114
    1MMT     Op  455   2.688   1.657   0.109
    1MMT     Oh  456   2.943   1.556   0.096
    1MMT     Ob  457   2.810   1.729   0.324
    1MMT     Ob  458   2.657   1.520   0.327
    1MMT     Ob  459   2.554   1.759   0.300
    1MMT      H  460   2.899   1.468   0.106
    1MMT    Alo  461   2.852   1.689   4.154
    1MMT    Sit  462   2.771   0.956   3.898
    1MMT    Sit  463   2.767   1.562   3.888
    1MMT    Omg  464   2.787   0.938   4.050
    1MMT     Op  465   2.754   1.570   4.046
    1MMT     Oh  466   3.012   1.679   4.053
    1MMT     Ob  467   0.051   1.498   3.829
    1MMT     Ob  468   2.788   1.708   3.829
    1MMT     Ob  469   2.889   1.470   3.852
    1MMT      H  470   3.064   1.762   4.042
    1MMT    Alo  471   2.592   1.237   0.006
    1MMT    Sit  472   3.030   1.409   3.891
    1MMT    Sit  473   3.020   1.117   3.900
    1MMT     Op  474   3.046   1.402   4.048
    1MMT    Omg  475   3.010   1.126   4.053
    1MMT   Ohmg  476   2.740   1.228   4.060
    1MMT     Ob  477   2.886   1.051   3.841
    1MMT     Ob  478   3.040   1.261   3.836
    1MMT     Ob  479   0.046   1.022   3.860
    1MMT      H  480   2.788   1.309   4.034
    1MMT    Alo  481   0.273   1.985   0.000
    1MMT    Sit  482   0.345   1.827   0.261
    1MMT    Sit  483   0.356   2.118   0.266
    1MMT    Omg  484   0.332   1.845   0.110
    1MMT     Op  485   0.373   2.112   0.109
    1MMT     Oh  486   0.109   2.001   0.103
    1MMT     Ob  487   3.074   2.174   0.326
    1MMT     Ob  488   0.333   1.975   0.325
    1MMT     Ob  489   0.237   2.216   0.300
    1MMT      H  490   0.064   1.915   0.116
    1MMT    Alo  491   0.015   2.436   0.001
    1MMT    Sit  492   0.091   2.268   0.268
    1MMT    Sit  493   0.098   2.562   0.269
    1MMT     Op  494   0.073   2.280   0.110
    1MMT     Op  495   0.115   2.554   0.111
    1MMT     Oh  496   0.372   2.448   0.101
    1MMT     Ob  497   0.236   2.622   0.327
    1MMT     Ob  498   0.075   2.417   0.326
    1MMT     Ob  499   3.076   2.659   0.303
    1MMT      H  500   0.324   2.365   0.123
    1MMT    Alo  501   0.277   2.584   0.000
    1MMT    Sit  502   0.198   1.859   3.895
    1MMT    Sit  503   0.192   2.457   3.891
    1MMT    Omg  504   0.215   1.851   4.046
    1MMT     Op  505   0.179   2.465   4.049
    1MMT     Oh  506   0.438   2.571   4.058
    1MMT     Ob  507   0.572   2.398   3.833
    1MMT     Ob  508   0.211   2.602   3.831
    1MMT     Ob  509   0.314   2.361   3.857
    1MMT      H  510   0.484   2.657   4.039
    1MMT    Alo  511   0.016   2.136   0.001
    1MMT    Sit  512   0.458   2.306   3.890
    1MMT    Sit  513   0.451   2.011   3.889
    1MMT     Op  514   0.476   2.293   4.049
    1MMT     Op  515   0.437   2.019   4.047
    1MMT     Oh  516   0.178   2.125   4.059
    1MMT     Ob  517   0.315   1.949   3.830
    1MMT     Ob  518   0.472   2.157   3.832
    1MMT     Ob  519   0.571   1.914   3.853
    1MMT      H  520   0.226   2.208   4.040
    1MMT    Alo  521   0.789   1.988   4.158
    1MMT    Sit  522   0.866   1.821   0.265
    1MMT    Sit  523   0.875   2.115   0.269
    1MMT     Op  524   0.846   1.835   0.110
    1MMT     Op  525   0.888   2.108   0.110
    1MMT     Oh  526   0.625   2.003   0.101
    1MMT     Ob  527   0.495   2.177   0.326
    1MMT     Ob  528   0.852   1.970   0.326
    1MMT     Ob  529   0.752   2.211   0.304
    1MMT      H  530   0.576   1.917   0.113
    1MMT    Alo  531   0.533   2.436   0.000
    1MMT    Sit  532   0.610   2.268   0.267
    1MMT    Sit  533   0.616   2.563   0.268
    1MMT     Op  534   0.592   2.281   0.110
    1MMT     Op  535   0.629   2.555   0.111
    1MMT     Oh  536   0.884   2.451   0.099
    1MMT     Ob  537   0.751   2.623   0.327
    1MMT     Ob  538   0.597   2.417   0.327
    1MMT     Ob  539   0.493   2.656   0.305
    1MMT      H  540   0.840   2.365   0.116
    1MMT    Alo  541   0.795   2.585   0.000
    1MMT    Sit  542   0.715   1.857   3.892
    1MMT    Sit  543   0.710   2.458   3.890
    1MMT     Op  544   0.729   1.849   4.048
    1MMT     Op  545   0.694   2.465   4.049
    1MMT     Oh  546   0.955   2.573   4.055
    1MMT     Ob  547   1.088   2.394   3.831
    1MMT     Ob  548   0.730   2.603   3.834
    1MMT     Ob  549   0.828   2.360   3.856
    1MMT      H  550   1.007   2.655   4.038
    1MMT    Alo  551   0.533   2.137   4.158
    1MMT    Sit  552   0.973   2.305   3.889
    1MMT    Sit  553   0.966   2.010   3.889
    1MMT     Op  554   0.990   2.291   4.047
    1MMT     Op  555   0.951   2.018   4.047
    1MMT     Oh  556   0.695   2.124   4.058
    1MMT     Ob  557   0.829   1.948   3.833
    1MMT     Ob  558   0.986   2.155   3.831
    1MMT     Ob  559   1.087   1.916   3.854
    1MMT      H  560   0.745   2.206   4.034
    1MMT    Alo  561   1.306   1.987   0.001
    1MMT    Sit  562   1.380   1.822   0.268
    1MMT    Sit  563   1.390   2.117   0.270
    1MMT     Op  564   1.362   1.835   0.111
    1MMT     Op  565   1.405   2.107   0.111
    1MMT     Oh  566   1.144   2.002   0.100
    1MMT     Ob  567   1.010   2.177   0.325
    1MMT     Ob  568   1.364   1.972   0.327
    1MMT     Ob  569   1.269   2.213   0.302
    1MMT      H  570   1.099   1.916   0.119
    1MMT    Alo  571   1.054   2.438   4.156
    1MMT    Sit  572   1.126   2.269   0.267
    1MMT    Sit  573   1.132   2.562   0.263
    1MMT     Op  574   1.107   2.279   0.109
    1MMT    Omg  575   1.142   2.554   0.110
    1MMT   Ohmg  576   1.412   2.447   0.104
    1MMT     Ob  577   1.268   2.626   0.321
    1MMT     Ob  578   1.110   2.417   0.324
    1MMT     Ob  579   1.010   2.658   0.304
    1MMT      H  580   1.369   2.366   0.138
    1MMT    Mgo  581   1.310   2.584   0.000
    1MMT    Sit  582   1.228   1.855   3.892
    1MMT    Sit  583   1.221   2.457   3.894
    1MMT     Op  584   1.245   1.847   4.049
    1MMT    Omg  585   1.204   2.459   4.046
    1MMT   Ohmg  586   1.480   2.564   4.054
    1MMT     Ob  587   1.604   2.393   3.835
    1MMT     Ob  588   1.245   2.605   3.836
    1MMT     Ob  589   1.346   2.362   3.855
    1MMT      H  590   1.530   2.647   4.037
    1MMT    Alo  591   1.050   2.138   4.157
    1MMT    Sit  592   1.489   2.304   3.895
    1MMT    Sit  593   1.481   2.008   3.893
    1MMT     Op  594   1.505   2.289   4.050
    1MMT     Op  595   1.466   2.014   4.049
    1MMT     Oh  596   1.211   2.127   4.057
    1MMT     Ob  597   1.346   1.945   3.833
    1MMT     Ob  598   1.498   2.154   3.834
    1MMT     Ob  599   1.603   1.916   3.853
    1MMT      H  600   1.259   2.213   4.049
    1MMT    Alo  601   1.822   1.989   4.156
    1MMT    Sit  602   1.898   1.821   0.264
    1MMT    Sit  603   1.905   2.115   0.267
    1MMT     Op  604   1.878   1.833   0.108
    1MMT     Op  605   1.918   2.106   0.107
    1MMT     Oh  606   1.659   2.003   0.099
    1MMT     Ob  607   1.526   2.176   0.326
    1MMT     Ob  608   1.882   1.969   0.323
    1MMT     Ob  609   1.784   2.211   0.301
    1MMT      H  610   1.613   1.920   0.125
    1MMT    Alo  611   1.563   2.437   0.002
    1MMT    Sit  612   1.642   2.268   0.268
    1MMT    Sit  613   1.649   2.563   0.269
    1MMT     Op  614   1.623   2.278   0.111
    1MMT     Op  615   1.663   2.557   0.111
    1MMT   Ohmg  616   1.912   2.458   0.106
    1MMT     Ob  617   1.786   2.625   0.327
    1MMT     Ob  618   1.626   2.418   0.326
    1MMT     Ob  619   1.527   2.661   0.304
    1MMT      H  620   1.867   2.377   0.139
    1MMT    Alo  621   1.828   2.581   0.003
    1MMT    Sit  622   1.745   1.857   3.890
    1MMT    Sit  623   1.742   2.456   3.894
    1MMT     Op  624   1.760   1.849   4.046
    1MMT     Op  625   1.728   2.461   4.050
    1MMT   Ohmg  626   1.977   2.575   4.056
    1MMT     Ob  627   2.122   2.394   3.836
    1MMT     Ob  628   1.760   2.603   3.837
    1MMT     Ob  629   1.863   2.362   3.856
    1MMT      H  630   2.030   2.657   4.040
    1MMT    Alo  631   1.566   2.138   0.002
    1MMT    Sit  632   2.006   2.302   3.894
    1MMT    Sit  633   1.996   2.009   3.887
    1MMT    Omg  634   2.020   2.283   4.045
    1MMT     Op  635   1.981   2.014   4.044
    1MMT     Oh  636   1.727   2.126   4.056
    1MMT     Ob  637   1.860   1.946   3.827
    1MMT     Ob  638   2.016   2.153   3.828
    1MMT     Ob  639   2.117   1.914   3.849
    1MMT      H  640   1.779   2.209   4.047
    1MMT    Alo  641   2.339   1.990   4.153
    1MMT    Sit  642   2.411   1.819   0.263
    1MMT    Sit  643   2.418   2.114   0.259
    1MMT     Op  644   2.393   1.830   0.107
    1MMT    Omg  645   2.432   2.104   0.108
    1MMT     Oh  646   2.176   2.002   0.093
    1MMT     Ob  647   2.041   2.174   0.321
    1MMT     Ob  648   2.405   1.967   0.323
    1MMT     Ob  649   2.299   2.206   0.299
    1MMT      H  650   2.128   1.918   0.113
    1MMT    Mgo  651   2.081   2.436   0.000
    1MMT    Sit  652   2.156   2.266   0.261
    1MMT    Sit  653   2.169   2.563   0.265
    1MMT    Omg  654   2.139   2.275   0.108
    1MMT    Omg  655   2.187   2.562   0.112
    1MMT     Oh  656   2.434   2.446   0.104
    1MMT     Ob  657   2.305   2.625   0.329
    1MMT     Ob  658   2.147   2.416   0.321
    1MMT     Ob  659   2.046   2.659   0.303
    1MMT      H  660   2.383   2.362   0.117
    1MMT    Alo  661   2.337   2.581   0.003
    1MMT    Sit  662   2.258   1.854   3.888
    1MMT    Sit  663   2.258   2.459   3.895
    1MMT     Op  664   2.275   1.843   4.044
    1MMT    Omg  665   2.247   2.468   4.048
    1MMT     Oh  666   2.503   2.571   4.062
    1MMT     Ob  667   2.639   2.393   3.832
    1MMT     Ob  668   2.275   2.606   3.835
    1MMT     Ob  669   2.381   2.367   3.856
    1MMT      H  670   2.554   2.654   4.052
    1MMT    Alo  671   2.081   2.142   4.154
    1MMT    Sit  672   2.521   2.307   3.895
    1MMT    Sit  673   2.508   2.007   3.891
    1MMT    Omg  674   2.540   2.296   4.047
    1MMT    Omg  675   2.491   2.009   4.043
    1MMT     Oh  676   2.244   2.127   4.050
    1MMT     Ob  677   2.375   1.942   3.826
    1MMT     Ob  678   2.529   2.154   3.833
    1MMT     Ob  679   2.634   1.915   3.853
    1MMT      H  680   2.292   2.213   4.044
    1MMT    Alo  681   2.849   1.989  -0.000
    1MMT    Sit  682   2.925   1.820   0.263
    1MMT    Sit  683   2.935   2.117   0.267
    1MMT     Op  684   2.909   1.832   0.108
    1MMT     Op  685   2.952   2.108   0.110
    1MMT   Ohmg  686   2.700   1.997   0.103
    1MMT     Ob  687   2.557   2.178   0.320
    1MMT     Ob  688   2.910   1.970   0.325
    1MMT     Ob  689   2.816   2.214   0.302
    1MMT      H  690   2.643   1.916   0.110
    1MMT    Alo  691   2.597   2.431   0.001
    1MMT    Sit  692   2.671   2.274   0.262
    1MMT    Sit  693   2.681   2.566   0.269
    1MMT    Omg  694   2.658   2.290   0.111
    1MMT     Op  695   2.696   2.558   0.111
    1MMT     Oh  696   2.953   2.449   0.100
    1MMT     Ob  697   2.818   2.625   0.327
    1MMT     Ob  698   2.659   2.421   0.327
    1MMT     Ob  699   2.561   2.663   0.304
    1MMT      H  700   2.898   2.368   0.116
    1MMT    Alo  701   2.854   2.589   4.158
    1MMT    Sit  702   2.775   1.857   3.890
    1MMT    Sit  703   2.772   2.456   3.890
    1MMT     Op  704   2.793   1.842   4.046
    1MMT     Op  705   2.759   2.463   4.048
    1MMT     Oh  706   3.022   2.572   4.056
    1MMT     Ob  707   0.056   2.396   3.834
    1MMT     Ob  708   2.794   2.601   3.832
    1MMT     Ob  709   2.895   2.362   3.855
    1MMT      H  710   3.065   2.660   4.046
    1MMT    Mgo  711   2.596   2.136   4.156
    1MMT    Sit  712   3.036   2.305   3.892
    1MMT    Sit  713   3.030   2.010   3.891
    1MMT     Op  714   3.054   2.293   4.048
    1MMT     Op  715   3.018   2.016   4.048
    1MMT   Ohmg  716   2.769   2.115   4.054
    1MMT     Ob  717   2.894   1.947   3.832
    1MMT     Ob  718   3.049   2.156   3.833
    1MMT     Ob  719   0.057   1.918   3.854
    1MMT      H  720   2.810   2.204   4.044
    1MMT    Alo  721   0.279   2.885   4.154
    1MMT    Sit  722   0.350   2.713   0.266
    1MMT    Sit  723   0.357   3.007   0.260
    1MMT     Op  724   0.334   2.722   0.110
    1MMT    Omg  725   0.371   2.998   0.108
    1MMT     Oh  726   0.112   2.897   0.099
    1MMT     Ob  727   3.077   3.073   0.326
    1MMT     Ob  728   0.336   2.862   0.323
    1MMT     Ob  729   0.237   3.106   0.296
    1MMT      H  730   0.060   2.814   0.113
    1MMT    Alo  731   0.016   3.332   4.153
    1MMT    Sit  732   0.094   3.163   0.262
    1MMT    Sit  733   0.098   3.458   0.264
    1MMT     Op  734   0.075   3.175   0.106
    1MMT     Op  735   0.112   3.450   0.107
    1MMT     Oh  736   0.374   3.339   0.099
    1MMT     Ob  737   0.234   3.519   0.322
    1MMT     Ob  738   0.080   3.312   0.322
    1MMT     Ob  739   3.072   3.553   0.301
    1MMT      H  740   0.327   3.252   0.105
    1MMT    Alo  741   0.272   3.486   4.153
    1MMT    Sit  742   0.200   2.753   3.889
    1MMT    Sit  743   0.193   3.353   3.886
    1MMT     Op  744   0.218   2.740   4.047
    1MMT     Op  745   0.175   3.360   4.044
    1MMT     Oh  746   0.432   3.472   4.055
    1MMT     Ob  747   0.577   3.289   3.829
    1MMT     Ob  748   0.209   3.499   3.828
    1MMT     Ob  749   0.318   3.262   3.853
    1MMT      H  750   0.477   3.559   4.044
    1MMT    Alo  751   0.015   3.030   4.158
    1MMT    Sit  752   0.459   3.201   3.894
    1MMT    Sit  753   0.450   2.903   3.891
    1MMT    Omg  754   0.478   3.194   4.046
    1MMT    Omg  755   0.432   2.905   4.044
    1MMT     Oh  756   0.185   3.020   4.055
    1MMT     Ob  757   0.316   2.840   3.829
    1MMT     Ob  758   0.470   3.051   3.835
    1MMT     Ob  759   0.576   2.811   3.854
    1MMT      H  760   0.235   3.104   4.042
    1MMT    Alo  761   0.791   2.885   0.000
    1MMT    Sit  762   0.868   2.715   0.268
    1MMT    Sit  763   0.874   3.010   0.269
    1MMT     Op  764   0.851   2.725   0.111
    1MMT     Op  765   0.892   3.003   0.112
    1MMT   Ohmg  766   0.641   2.893   0.102
    1MMT     Ob  767   0.495   3.070   0.319
    1MMT     Ob  768   0.853   2.864   0.326
    1MMT     Ob  769   0.754   3.107   0.303
    1MMT      H  770   0.592   2.810   0.120
    1MMT    Alo  771   0.532   3.327   4.158
    1MMT    Sit  772   0.610   3.164   0.261
    1MMT    Sit  773   0.613   3.457   0.262
    1MMT    Omg  774   0.597   3.181   0.110
    1MMT     Op  775   0.627   3.450   0.105
    1MMT     Oh  776   0.884   3.347   0.094
    1MMT     Ob  777   0.749   3.519   0.319
    1MMT     Ob  778   0.594   3.313   0.324
    1MMT     Ob  779   0.492   3.551   0.300
    1MMT      H  780   0.836   3.262   0.107
    1MMT    Alo  781   0.790   3.482   4.151
    1MMT    Sit  782   0.718   2.752   3.892
    1MMT    Sit  783   0.709   3.355   3.887
    1MMT     Op  784   0.736   2.739   4.049
    1MMT     Op  785   0.697   3.364   4.043
    1MMT     Oh  786   0.952   3.474   4.051
    1MMT     Ob  787   1.090   3.289   3.827
    1MMT     Ob  788   0.720   3.501   3.824
    1MMT     Ob  789   0.833   3.264   3.849
    1MMT      H  790   1.004   3.558   4.042
    1MMT    Mgo  791   0.537   3.030   4.156
    1MMT    Sit  792   0.974   3.202   3.889
    1MMT    Sit  793   0.971   2.907   3.894
    1MMT     Op  794   0.990   3.193   4.047
    1MMT     Op  795   0.956   2.913   4.051
    1MMT   Ohmg  796   0.709   3.013   4.054
    1MMT     Ob  797   0.836   2.842   3.833
    1MMT     Ob  798   0.986   3.052   3.835
    1MMT     Ob  799   1.094   2.815   3.860
    1MMT      H  800   0.756   3.098   4.041
    1MMT    Alo  801   1.310   2.879   0.005
    1MMT    Sit  802   1.385   2.718   0.264
    1MMT    Sit  803   1.391   3.012   0.271
    1MMT    Omg  804   1.371   2.738   0.113
    1MMT     Op  805   1.407   3.005   0.114
    1MMT     Oh  806   1.147   2.893   0.107
    1MMT     Ob  807   1.010   3.071   0.329
    1MMT     Ob  808   1.368   2.868   0.330
    1MMT     Ob  809   1.269   3.108   0.306
    1MMT      H  810   1.102   2.806   0.119
    1MMT    Alo  811   1.051   3.334   4.153
    1MMT    Sit  812   1.125   3.162   0.268
    1MMT    Sit  813   1.128   3.456   0.260
    1MMT     Op  814   1.107   3.170   0.111
    1MMT    Omg  815   1.140   3.447   0.108
    1MMT   Ohmg  816   1.412   3.341   0.102
    1MMT     Ob  817   1.264   3.518   0.321
    1MMT     Ob  818   1.107   3.312   0.324
    1MMT     Ob  819   1.005   3.553   0.298
    1MMT      H  820   1.364   3.257   0.117
    1MMT    Mgo  821   1.306   3.480   4.157
    1MMT    Sit  822   1.236   2.756   3.898
    1MMT    Sit  823   1.223   3.352   3.892
    1MMT    Omg  824   1.253   2.746   4.050
    1MMT    Omg  825   1.202   3.355   4.044
    1MMT   Ohmg  826   1.478   3.463   4.053
    1MMT     Ob  827   1.606   3.294   3.831
    1MMT     Ob  828   1.240   3.501   3.834
    1MMT     Ob  829   1.347   3.259   3.856
    1MMT      H  830   1.523   3.549   4.041
    1MMT    Alo  831   1.052   3.030   0.004
    1MMT    Sit  832   1.490   3.203   3.892
    1MMT    Sit  833   1.486   2.907   3.894
    1MMT     Op  834   1.509   3.192   4.049
    1MMT     Op  835   1.472   2.915   4.052
    1MMT     Oh  836   1.210   3.021   4.063
    1MMT     Ob  837   1.351   2.846   3.836
    1MMT     Ob  838   1.507   3.053   3.837
    1MMT     Ob  839   1.608   2.813   3.858
    1MMT      H  840   1.259   3.105   4.046
    1MMT    Alo  841   1.823   2.882   0.003
    1MMT    Sit  842   1.902   2.713   0.267
    1MMT    Sit  843   1.907   3.008   0.270
    1MMT     Op  844   1.884   2.730   0.112
    1MMT     Op  845   1.921   3.001   0.112
    1MMT     Oh  846   1.662   2.895   0.105
    1MMT     Ob  847   1.527   3.073   0.329
    1MMT     Ob  848   1.888   2.864   0.329
    1MMT     Ob  849   1.785   3.104   0.305
    1MMT      H  850   1.614   2.810   0.119
    1MMT    Alo  851   1.561   3.335   4.155
    1MMT    Sit  852   1.642   3.160   0.267
    1MMT    Sit  853   1.646   3.458   0.263
    1MMT     Op  854   1.626   3.169   0.111
    1MMT     Op  855   1.661   3.450   0.107
    1MMT     Oh  856   1.918   3.348   0.095
    1MMT     Ob  857   1.782   3.518   0.321
    1MMT     Ob  858   1.628   3.312   0.324
    1MMT     Ob  859   1.524   3.554   0.301
    1MMT      H  860   1.873   3.264   0.119
    1MMT    Alo  861   1.823   3.481   4.153
    1MMT    Sit  862   1.749   2.752   3.894
    1MMT    Sit  863   1.741   3.357   3.886
    1MMT     Op  864   1.766   2.743   4.051
    1MMT     Op  865   1.731   3.364   4.044
    1MMT     Oh  866   1.986   3.474   4.051
    1MMT     Ob  867   2.122   3.289   3.825
    1MMT     Ob  868   1.758   3.503   3.828
    1MMT     Ob  869   1.864   3.263   3.849
    1MMT      H  870   2.039   3.557   4.045
    1MMT    Alo  871   1.568   3.031   0.004
    1MMT    Sit  872   2.005   3.202   3.887
    1MMT    Sit  873   2.000   2.906   3.890
    1MMT     Op  874   2.021   3.192   4.045
    1MMT     Op  875   1.987   2.915   4.048
    1MMT     Oh  876   1.729   3.019   4.061
    1MMT     Ob  877   1.865   2.842   3.834
    1MMT     Ob  878   2.014   3.053   3.830
    1MMT     Ob  879   2.124   2.816   3.854
    1MMT      H  880   1.777   3.103   4.042
    1MMT    Alo  881   2.340   2.883   0.002
    1MMT    Sit  882   2.417   2.717   0.270
    1MMT    Sit  883   2.422   3.011   0.269
    1MMT     Op  884   2.400   2.730   0.112
    1MMT     Op  885   2.436   3.004   0.112
    1MMT     Oh  886   2.179   2.896   0.101
    1MMT     Ob  887   2.042   3.071   0.328
    1MMT     Ob  888   2.401   2.867   0.328
    1MMT     Ob  889   2.300   3.107   0.304
    1MMT      H  890   2.135   2.809   0.118
    1MMT    Alo  891   2.084   3.335   4.152
    1MMT    Sit  892   2.157   3.163   0.266
    1MMT    Sit  893   2.161   3.456   0.259
    1MMT     Op  894   2.138   3.170   0.108
    1MMT    Omg  895   2.173   3.447   0.105
    1MMT   Ohmg  896   2.446   3.344   0.102
    1MMT     Ob  897   2.299   3.518   0.315
    1MMT     Ob  898   2.140   3.311   0.320
    1MMT     Ob  899   2.040   3.556   0.295
    1MMT      H  900   2.399   3.261   0.127
    1MMT    Mgo  901   2.339   3.480   4.154
    1MMT    Sit  902   2.264   2.753   3.893
    1MMT    Sit  903   2.254   3.353   3.890
    1MMT     Op  904   2.282   2.744   4.049
    1MMT    Omg  905   2.235   3.354   4.042
    1MMT   Ohmg  906   2.511   3.463   4.052
    1MMT     Ob  907   2.639   3.291   3.832
    1MMT     Ob  908   2.272   3.500   3.833
    1MMT     Ob  909   2.380   3.260   3.852
    1MMT      H  910   2.557   3.549   4.035
    1MMT    Alo  911   2.084   3.031   4.158
    1MMT    Sit  912   2.522   3.204   3.894
    1MMT    Sit  913   2.517   2.904   3.895
    1MMT     Op  914   2.537   3.194   4.049
    1MMT     Op  915   2.499   2.912   4.051
    1MMT     Oh  916   2.243   3.022   4.058
    1MMT     Ob  917   2.381   2.845   3.834
    1MMT     Ob  918   2.536   3.052   3.836
    1MMT     Ob  919   2.638   2.810   3.859
    1MMT      H  920   2.291   3.108   4.049
    1MMT    Mgo  921   2.855   2.884   0.001
    1MMT    Sit  922   2.931   2.716   0.263
    1MMT    Sit  923   2.941   3.012   0.264
    1MMT    Omg  924   2.915   2.724   0.111
    1MMT    Omg  925   2.959   3.010   0.111
    1MMT   Ohmg  926   2.685   2.903   0.105
    1MMT     Ob  927   2.558   3.074   0.328
    1MMT     Ob  928   2.921   2.866   0.322
    1MMT     Ob  929   2.819   3.108   0.303
    1MMT      H  930   2.639   2.818   0.125
    1MMT    Alo  931   2.593   3.335   4.156
    1MMT    Sit  932   2.675   3.162   0.266
    1MMT    Sit  933   2.679   3.458   0.264
    1MMT     Op  934   2.657   3.173   0.110
    1MMT     Op  935   2.696   3.451   0.108
    1MMT     Oh  936   2.952   3.345   0.098
    1MMT     Ob  937   2.815   3.518   0.324
    1MMT     Ob  938   2.659   3.313   0.324
    1MMT     Ob  939   2.557   3.555   0.300
    1MMT      H  940   2.905   3.259   0.113
    1MMT    Alo  941   2.854   3.481   4.156
    1MMT    Sit  942   2.781   2.748   3.896
    1MMT    Sit  943   2.774   3.357   3.889
    1MMT    Omg  944   2.797   2.731   4.048
    1MMT     Op  945   2.763   3.362   4.046
    1MMT     Oh  946   3.017   3.472   4.056
    1MMT     Ob  947   0.060   3.288   3.827
    1MMT     Ob  948   2.788   3.504   3.831
    1MMT     Ob  949   2.898   3.267   3.847
    1MMT      H  950   3.068   3.556   4.043
    1MMT    Alo  951   2.601   3.029   0.004
    1MMT    Sit  952   3.038   3.202   3.887
    1MMT    Sit  953   3.032   2.908   3.894
    1MMT     Op  954   3.054   3.194   4.044
    1MMT    Omg  955   3.022   2.917   4.047
    1MMT   Ohmg  956   2.750   3.022   4.055
    1MMT     Ob  957   2.897   2.840   3.836
    1MMT     Ob  958   3.047   3.053   3.831
    1MMT     Ob  959   0.059   2.813   3.854
    1MMT      H  960   2.800   3.106   4.041
    2MMT    Alo  961   0.441   0.496   2.075
    2MMT    Sit  962   0.520   0.327   2.339
    2MMT    Sit  963   0.522   0.621   2.345
    2MMT     Op  964   0.501   0.339   2.183
    2MMT     Op  965   0.535   0.614   2.187
    2MMT     Oh  966   0.278   0.508   2.175
    2MMT     Ob  967   0.140   0.685   2.405
    2MMT     Ob  968   0.506   0.473   2.400
    2MMT     Ob  969   0.397   0.712   2.382
    2MMT      H  970   0.228   0.426   2.199
    2MMT    Alo  971   0.178   0.943   2.081
    2MMT    Sit  972   0.256   0.773   2.347
    2MMT    Sit  973   0.264   1.067   2.347
    2MMT     Op  974   0.238   0.786   2.189
    2MMT     Op  975   0.273   1.062   2.191
    2MMT   Ohmg  976   0.523   0.963   2.183
    2MMT     Ob  977   0.397   1.134   2.406
    2MMT     Ob  978   0.246   0.922   2.405
    2MMT     Ob  979   0.141   1.162   2.389
    2MMT      H  980   0.479   0.878   2.203
    2MMT    Alo  981   0.442   1.091   2.080
    2MMT    Sit  982   0.365   0.366   1.807
    2MMT    Sit  983   0.357   0.965   1.813
    2MMT     Op  984   0.383   0.354   1.963
    2MMT     Op  985   0.339   0.970   1.969
    2MMT   Ohmg  986   0.590   1.083   1.976
    2MMT     Ob  987   0.736   0.903   1.758
    2MMT     Ob  988   0.374   1.109   1.754
    2MMT     Ob  989   0.477   0.868   1.776
    2MMT      H  990   0.640   1.167   1.964
    2MMT    Alo  991   0.182   0.644   2.079
    2MMT    Sit  992   0.623   0.810   1.816
    2MMT    Sit  993   0.617   0.516   1.810
    2MMT    Omg  994   0.635   0.792   1.967
    2MMT     Op  995   0.598   0.523   1.966
    2MMT     Oh  996   0.345   0.634   1.975
    2MMT     Ob  997   0.481   0.455   1.748
    2MMT     Ob  998   0.633   0.662   1.750
    2MMT     Ob  999   0.739   0.422   1.777
    2MMT      H 1000   0.397   0.718   1.970
    2MMT    Alo 1001   0.958   0.491   2.082
    2MMT    Sit 1002   1.038   0.330   2.342
    2MMT    Sit 1003   1.037   0.622   2.350
    2MMT    Omg 1004   1.022   0.347   2.190
    2MMT     Op 1005   1.053   0.616   2.192
    2MMT     Oh 1006   0.797   0.502   2.179
    2MMT     Ob 1007   0.654   0.685   2.404
    2MMT     Ob 1008   1.020   0.476   2.407
    2MMT     Ob 1009   0.913   0.714   2.384
    2MMT      H 1010   0.752   0.416   2.190
    2MMT    Mgo 1011   0.695   0.945   2.080
    2MMT    Sit 1012   0.771   0.774   2.342
    2MMT    Sit 1013   0.782   1.071   2.344
    2MMT    Omg 1014   0.754   0.782   2.189
    2MMT    Omg 1015   0.801   1.069   2.192
    2MMT     Oh 1016   1.051   0.952   2.182
    2MMT     Ob 1017   0.917   1.135   2.408
    2MMT     Ob 1018   0.761   0.924   2.401
    2MMT     Ob 1019   0.657   1.165   2.383
    2MMT      H 1020   0.998   0.870   2.196
    2MMT    Alo 1021   0.952   1.090   2.082
    2MMT    Sit 1022   0.885   0.367   1.816
    2MMT    Sit 1023   0.874   0.967   1.816
    2MMT    Omg 1024   0.903   0.357   1.968
    2MMT    Omg 1025   0.861   0.976   1.970
    2MMT     Oh 1026   1.119   1.076   1.981
    2MMT     Ob 1027   1.254   0.906   1.754
    2MMT     Ob 1028   0.893   1.112   1.755
    2MMT     Ob 1029   0.996   0.871   1.781
    2MMT      H 1030   1.163   1.161   1.957
    2MMT    Alo 1031   0.698   0.650   2.078
    2MMT    Sit 1032   1.139   0.815   1.814
    2MMT    Sit 1033   1.133   0.520   1.815
    2MMT     Op 1034   1.158   0.804   1.971
    2MMT     Op 1035   1.118   0.528   1.972
    2MMT     Oh 1036   0.855   0.636   1.978
    2MMT     Ob 1037   0.998   0.460   1.755
    2MMT     Ob 1038   1.156   0.665   1.757
    2MMT     Ob 1039   1.254   0.422   1.781
    2MMT      H 1040   0.902   0.721   1.962
    2MMT    Alo 1041   1.477   0.496   2.081
    2MMT    Sit 1042   1.555   0.325   2.347
    2MMT    Sit 1043   1.554   0.619   2.346
    2MMT     Op 1044   1.537   0.338   2.191
    2MMT    Omg 1045   1.565   0.612   2.193
    2MMT     Oh 1046   1.307   0.507   2.182
    2MMT     Ob 1047   1.170   0.686   2.409
    2MMT     Ob 1048   1.542   0.473   2.407
    2MMT     Ob 1049   1.429   0.711   2.386
    2MMT      H 1050   1.259   0.422   2.195
    2MMT    Alo 1051   1.210   0.943   2.080
    2MMT    Sit 1052   1.288   0.772   2.349
    2MMT    Sit 1053   1.295   1.067   2.346
    2MMT     Op 1054   1.272   0.783   2.192
    2MMT     Op 1055   1.308   1.062   2.190
    2MMT     Oh 1056   1.564   0.954   2.182
    2MMT     Ob 1057   1.432   1.131   2.404
    2MMT     Ob 1058   1.279   0.923   2.406
    2MMT     Ob 1059   1.175   1.163   2.386
    2MMT      H 1060   1.520   0.866   2.191
    2MMT    Alo 1061   1.472   1.091   2.077
    2MMT    Sit 1062   1.398   0.363   1.817
    2MMT    Sit 1063   1.391   0.966   1.811
    2MMT     Op 1064   1.415   0.352   1.973
    2MMT     Op 1065   1.376   0.975   1.969
    2MMT     Oh 1066   1.630   1.080   1.980
    2MMT     Ob 1067   1.770   0.903   1.754
    2MMT     Ob 1068   1.413   1.111   1.753
    2MMT     Ob 1069   1.511   0.869   1.779
    2MMT      H 1070   1.682   1.161   1.960
    2MMT    Alo 1071   1.216   0.643   2.083
    2MMT    Sit 1072   1.656   0.812   1.818
    2MMT    Sit 1073   1.646   0.515   1.819
    2MMT    Omg 1074   1.673   0.806   1.971
    2MMT    Omg 1075   1.627   0.519   1.971
    2MMT     Oh 1076   1.376   0.631   1.980
    2MMT     Ob 1077   1.511   0.454   1.755
    2MMT     Ob 1078   1.670   0.661   1.762
    2MMT     Ob 1079   1.768   0.417   1.782
    2MMT      H 1080   1.427   0.713   1.960
    2MMT    Alo 1081   1.986   0.497   2.080
    2MMT    Sit 1082   2.071   0.326   2.347
    2MMT    Sit 1083   2.069   0.622   2.347
    2MMT     Op 1084   2.056   0.336   2.190
    2MMT     Op 1085   2.087   0.615   2.190
    2MMT   Ohmg 1086   1.838   0.503   2.184
    2MMT     Ob 1087   1.688   0.690   2.404
    2MMT     Ob 1088   2.056   0.475   2.405
    2MMT     Ob 1089   1.948   0.717   2.383
    2MMT      H 1090   1.786   0.419   2.196
    2MMT    Alo 1091   1.729   0.939   2.081
    2MMT    Sit 1092   1.805   0.779   2.344
    2MMT    Sit 1093   1.811   1.073   2.346
    2MMT    Omg 1094   1.791   0.796   2.193
    2MMT     Op 1095   1.824   1.064   2.188
    2MMT     Oh 1096   2.085   0.955   2.176
    2MMT     Ob 1097   1.946   1.137   2.402
    2MMT     Ob 1098   1.794   0.928   2.408
    2MMT     Ob 1099   1.688   1.166   2.382
    2MMT      H 1100   2.030   0.873   2.184
    2MMT    Alo 1101   1.986   1.097   2.073
    2MMT    Sit 1102   1.913   0.364   1.815
    2MMT    Sit 1103   1.905   0.965   1.810
    2MMT     Op 1104   1.935   0.352   1.971
    2MMT     Op 1105   1.892   0.973   1.968
    2MMT     Oh 1106   2.150   1.081   1.974
    2MMT     Ob 1107   2.288   0.898   1.752
    2MMT     Ob 1108   1.925   1.110   1.750
    2MMT     Ob 1109   2.028   0.870   1.774
    2MMT      H 1110   2.196   1.166   1.956
    2MMT    Mgo 1111   1.732   0.643   2.082
    2MMT    Sit 1112   2.169   0.812   1.810
    2MMT    Sit 1113   2.163   0.518   1.811
    2MMT     Op 1114   2.187   0.801   1.968
    2MMT     Op 1115   2.154   0.525   1.969
    2MMT   Ohmg 1116   1.902   0.623   1.977
    2MMT     Ob 1117   2.028   0.457   1.754
    2MMT     Ob 1118   2.184   0.662   1.752
    2MMT     Ob 1119   2.286   0.422   1.773
    2MMT      H 1120   1.945   0.709   1.955
    2MMT    Alo 1121   2.504   0.496   2.076
    2MMT    Sit 1122   2.585   0.323   2.342
    2MMT    Sit 1123   2.585   0.619   2.345
    2MMT     Op 1124   2.564   0.336   2.185
    2MMT     Op 1125   2.599   0.611   2.187
    2MMT     Oh 1126   2.342   0.507   2.178
    2MMT     Ob 1127   2.204   0.687   2.406
    2MMT     Ob 1128   2.567   0.471   2.402
    2MMT     Ob 1129   2.462   0.712   2.381
    2MMT      H 1130   2.291   0.425   2.197
    2MMT    Alo 1131   2.243   0.945   2.075
    2MMT    Sit 1132   2.321   0.774   2.344
    2MMT    Sit 1133   2.326   1.070   2.344
    2MMT     Op 1134   2.303   0.784   2.188
    2MMT     Op 1135   2.339   1.063   2.187
    2MMT   Ohmg 1136   2.587   0.963   2.183
    2MMT     Ob 1137   2.459   1.136   2.403
    2MMT     Ob 1138   2.309   0.923   2.402
    2MMT     Ob 1139   2.201   1.161   2.380
    2MMT      H 1140   2.540   0.880   2.205
    2MMT    Alo 1141   2.504   1.091   2.079
    2MMT    Sit 1142   2.429   0.366   1.809
    2MMT    Sit 1143   2.420   0.963   1.811
    2MMT     Op 1144   2.447   0.354   1.966
    2MMT     Op 1145   2.402   0.970   1.968
    2MMT   Ohmg 1146   2.655   1.082   1.976
    2MMT     Ob 1147   2.800   0.903   1.757
    2MMT     Ob 1148   2.443   1.109   1.754
    2MMT     Ob 1149   2.543   0.867   1.778
    2MMT      H 1150   2.700   1.168   1.963
    2MMT    Alo 1151   2.246   0.644   2.079
    2MMT    Sit 1152   2.684   0.809   1.817
    2MMT    Sit 1153   2.680   0.517   1.809
    2MMT    Omg 1154   2.700   0.791   1.968
    2MMT     Op 1155   2.664   0.523   1.966
    2MMT     Oh 1156   2.410   0.632   1.977
    2MMT     Ob 1157   2.544   0.457   1.749
    2MMT     Ob 1158   2.700   0.662   1.751
    2MMT     Ob 1159   2.802   0.423   1.773
    2MMT      H 1160   2.459   0.717   1.965
    2MMT    Alo 1161   3.021   0.490   2.079
    2MMT    Sit 1162   0.005   0.329   2.337
    2MMT    Sit 1163   0.005   0.621   2.347
    2MMT    Omg 1164   3.085   0.347   2.185
    2MMT     Op 1165   0.023   0.615   2.187
    2MMT     Oh 1166   2.862   0.504   2.177
    2MMT     Ob 1167   2.719   0.681   2.403
    2MMT     Ob 1168   3.086   0.475   2.403
    2MMT     Ob 1169   2.978   0.713   2.380
    2MMT      H 1170   2.817   0.420   2.202
    2MMT    Mgo 1171   2.758   0.944   2.081
    2MMT    Sit 1172   2.835   0.772   2.342
    2MMT    Sit 1173   2.844   1.071   2.345
    2MMT    Omg 1174   2.817   0.781   2.189
    2MMT    Omg 1175   2.864   1.068   2.193
    2MMT     Oh 1176   0.017   0.953   2.183
    2MMT     Ob 1177   2.978   1.135   2.409
    2MMT     Ob 1178   2.825   0.923   2.403
    2MMT     Ob 1179   2.719   1.163   2.383
    2MMT      H 1180   3.061   0.872   2.202
    2MMT    Alo 1181   3.014   1.090   2.084
    2MMT    Sit 1182   2.946   0.365   1.814
    2MMT    Sit 1183   2.935   0.968   1.819
    2MMT    Omg 1184   2.964   0.356   1.965
    2MMT    Omg 1185   2.925   0.974   1.971
    2MMT     Oh 1186   0.087   1.075   1.980
    2MMT     Ob 1187   0.220   0.900   1.750
    2MMT     Ob 1188   2.954   1.111   1.757
    2MMT     Ob 1189   3.059   0.874   1.776
    2MMT      H 1190   0.132   1.162   1.967
    2MMT    Alo 1191   2.762   0.648   2.077
    2MMT    Sit 1192   0.103   0.813   1.814
    2MMT    Sit 1193   0.099   0.518   1.809
    2MMT     Op 1194   0.122   0.800   1.969
    2MMT     Op 1195   0.087   0.525   1.965
    2MMT     Oh 1196   2.922   0.636   1.976
    2MMT     Ob 1197   3.061   0.456   1.749
    2MMT     Ob 1198   0.115   0.665   1.750
    2MMT     Ob 1199   0.223   0.427   1.769
    2MMT      H 1200   2.967   0.724   1.976
    2MMT    Alo 1201   0.443   1.395   2.078
    2MMT    Sit 1202   0.517   1.223   2.344
    2MMT    Sit 1203   0.522   1.518   2.341
    2MMT     Op 1204   0.497   1.234   2.189
    2MMT    Omg 1205   0.534   1.508   2.189
    2MMT     Oh 1206   0.277   1.405   2.178
    2MMT     Ob 1207   0.142   1.581   2.405
    2MMT     Ob 1208   0.501   1.372   2.405
    2MMT     Ob 1209   0.399   1.611   2.380
    2MMT      H 1210   0.228   1.320   2.178
    2MMT    Mgo 1211   0.183   1.841   2.077
    2MMT    Sit 1212   0.259   1.673   2.340
    2MMT    Sit 1213   0.273   1.969   2.340
    2MMT    Omg 1214   0.240   1.679   2.188
    2MMT    Omg 1215   0.289   1.967   2.188
    2MMT     Oh 1216   0.539   1.850   2.181
    2MMT     Ob 1217   0.408   2.031   2.403
    2MMT     Ob 1218   0.249   1.823   2.397
    2MMT     Ob 1219   0.149   2.064   2.380
    2MMT      H 1220   0.489   1.766   2.192
    2MMT    Alo 1221   0.441   1.988   2.077
    2MMT    Sit 1222   0.362   1.259   1.813
    2MMT    Sit 1223   0.361   1.863   1.814
    2MMT     Op 1224   0.378   1.248   1.969
    2MMT    Omg 1225   0.348   1.872   1.966
    2MMT     Oh 1226   0.604   1.976   1.978
    2MMT     Ob 1227   0.741   1.797   1.751
    2MMT     Ob 1228   0.375   2.008   1.748
    2MMT     Ob 1229   0.484   1.770   1.775
    2MMT      H 1230   0.651   2.062   1.968
    2MMT    Alo 1231   0.183   1.545   2.077
    2MMT    Sit 1232   0.625   1.709   1.815
    2MMT    Sit 1233   0.611   1.412   1.817
    2MMT    Omg 1234   0.643   1.701   1.967
    2MMT    Omg 1235   0.593   1.414   1.968
    2MMT     Oh 1236   0.347   1.531   1.976
    2MMT     Ob 1237   0.477   1.347   1.751
    2MMT     Ob 1238   0.631   1.557   1.756
    2MMT     Ob 1239   0.735   1.318   1.778
    2MMT      H 1240   0.396   1.616   1.969
    2MMT    Alo 1241   0.952   1.393   2.079
    2MMT    Sit 1242   1.031   1.224   2.347
    2MMT    Sit 1243   1.038   1.520   2.345
    2MMT     Op 1244   1.018   1.233   2.191
    2MMT     Op 1245   1.055   1.512   2.188
    2MMT   Ohmg 1246   0.804   1.401   2.183
    2MMT     Ob 1247   0.658   1.582   2.399
    2MMT     Ob 1248   1.021   1.374   2.405
    2MMT     Ob 1249   0.917   1.615   2.382
    2MMT      H 1250   0.756   1.316   2.197
    2MMT    Alo 1251   0.701   1.835   2.078
    2MMT    Sit 1252   0.774   1.676   2.341
    2MMT    Sit 1253   0.785   1.970   2.344
    2MMT    Omg 1254   0.761   1.692   2.189
    2MMT     Op 1255   0.802   1.961   2.187
    2MMT     Oh 1256   1.053   1.853   2.177
    2MMT     Ob 1257   0.919   2.034   2.404
    2MMT     Ob 1258   0.761   1.826   2.405
    2MMT     Ob 1259   0.664   2.067   2.376
    2MMT      H 1260   1.002   1.769   2.188
    2MMT    Alo 1261   0.961   1.989   2.078
    2MMT    Sit 1262   0.879   1.261   1.815
    2MMT    Sit 1263   0.877   1.858   1.810
    2MMT     Op 1264   0.898   1.249   1.971
    2MMT     Op 1265   0.862   1.867   1.967
    2MMT     Oh 1266   1.122   1.976   1.976
    2MMT     Ob 1267   1.255   1.798   1.752
    2MMT     Ob 1268   0.897   2.004   1.751
    2MMT     Ob 1269   0.998   1.763   1.776
    2MMT      H 1270   1.173   2.060   1.966
    2MMT    Mgo 1271   0.700   1.539   2.079
    2MMT    Sit 1272   1.140   1.706   1.811
    2MMT    Sit 1273   1.131   1.412   1.811
    2MMT     Op 1274   1.158   1.693   1.969
    2MMT     Op 1275   1.121   1.419   1.969
    2MMT   Ohmg 1276   0.870   1.519   1.975
    2MMT     Ob 1277   0.995   1.352   1.754
    2MMT     Ob 1278   1.157   1.557   1.754
    2MMT     Ob 1279   1.252   1.315   1.774
    2MMT      H 1280   0.915   1.604   1.954
    2MMT    Alo 1281   1.471   1.393   2.076
    2MMT    Sit 1282   1.547   1.222   2.343
    2MMT    Sit 1283   1.554   1.519   2.344
    2MMT     Op 1284   1.528   1.234   2.188
    2MMT     Op 1285   1.566   1.511   2.188
    2MMT     Oh 1286   1.310   1.404   2.178
    2MMT     Ob 1287   1.175   1.581   2.404
    2MMT     Ob 1288   1.532   1.372   2.404
    2MMT     Ob 1289   1.431   1.610   2.383
    2MMT      H 1290   1.258   1.321   2.189
    2MMT    Alo 1291   1.220   1.842   2.079
    2MMT    Sit 1292   1.291   1.672   2.345
    2MMT    Sit 1293   1.299   1.966   2.344
    2MMT     Op 1294   1.274   1.683   2.189
    2MMT    Omg 1295   1.310   1.957   2.192
    2MMT   Ohmg 1296   1.580   1.850   2.185
    2MMT     Ob 1297   1.435   2.031   2.403
    2MMT     Ob 1298   1.280   1.819   2.407
    2MMT     Ob 1299   1.177   2.059   2.383
    2MMT      H 1300   1.528   1.767   2.198
    2MMT    Mgo 1301   1.477   1.989   2.081
    2MMT    Sit 1302   1.396   1.260   1.809
    2MMT    Sit 1303   1.390   1.861   1.817
    2MMT     Op 1304   1.413   1.250   1.967
    2MMT    Omg 1305   1.370   1.863   1.969
    2MMT   Ohmg 1306   1.647   1.967   1.978
    2MMT     Ob 1307   1.774   1.797   1.757
    2MMT     Ob 1308   1.413   2.008   1.759
    2MMT     Ob 1309   1.513   1.766   1.780
    2MMT      H 1310   1.693   2.052   1.956
    2MMT    Alo 1311   1.214   1.541   2.077
    2MMT    Sit 1312   1.656   1.709   1.816
    2MMT    Sit 1313   1.647   1.413   1.811
    2MMT     Op 1314   1.672   1.695   1.971
    2MMT     Op 1315   1.629   1.419   1.968
    2MMT     Oh 1316   1.377   1.528   1.977
    2MMT     Ob 1317   1.510   1.354   1.751
    2MMT     Ob 1318   1.668   1.559   1.755
    2MMT     Ob 1319   1.767   1.317   1.776
    2MMT      H 1320   1.424   1.613   1.960
    2MMT    Mgo 1321   1.985   1.394   2.077
    2MMT    Sit 1322   2.061   1.225   2.337
    2MMT    Sit 1323   2.072   1.523   2.341
    2MMT    Omg 1324   2.045   1.233   2.186
    2MMT    Omg 1325   2.091   1.521   2.189
    2MMT   Ohmg 1326   1.815   1.412   2.181
    2MMT     Ob 1327   1.689   1.581   2.404
    2MMT     Ob 1328   2.052   1.375   2.399
    2MMT     Ob 1329   1.949   1.614   2.381
    2MMT      H 1330   1.770   1.325   2.192
    2MMT    Alo 1331   1.730   1.841   2.082
    2MMT    Sit 1332   1.807   1.672   2.345
    2MMT    Sit 1333   1.815   1.967   2.349
    2MMT     Op 1334   1.791   1.685   2.190
    2MMT     Op 1335   1.833   1.961   2.192
    2MMT     Oh 1336   2.087   1.852   2.183
    2MMT     Ob 1337   1.952   2.029   2.409
    2MMT     Ob 1338   1.794   1.821   2.406
    2MMT     Ob 1339   1.695   2.063   2.384
    2MMT      H 1340   2.039   1.767   2.198
    2MMT    Alo 1341   1.992   1.987   2.082
    2MMT    Sit 1342   1.910   1.258   1.814
    2MMT    Sit 1343   1.910   1.862   1.815
    2MMT    Omg 1344   1.926   1.240   1.966
    2MMT     Op 1345   1.897   1.868   1.972
    2MMT     Oh 1346   2.154   1.974   1.981
    2MMT     Ob 1347   2.290   1.800   1.754
    2MMT     Ob 1348   1.929   2.007   1.757
    2MMT     Ob 1349   2.031   1.768   1.777
    2MMT      H 1350   2.200   2.057   1.954
    2MMT    Alo 1351   1.733   1.539   2.078
    2MMT    Sit 1352   2.173   1.709   1.812
    2MMT    Sit 1353   2.165   1.415   1.815
    2MMT     Op 1354   2.191   1.698   1.970
    2MMT    Omg 1355   2.152   1.425   1.968
    2MMT   Ohmg 1356   1.882   1.531   1.974
    2MMT     Ob 1357   2.027   1.351   1.756
    2MMT     Ob 1358   2.185   1.561   1.753
    2MMT     Ob 1359   2.285   1.318   1.778
    2MMT      H 1360   1.930   1.614   1.955
    2MMT    Alo 1361   2.506   1.393   2.079
    2MMT    Sit 1362   2.579   1.223   2.345
    2MMT    Sit 1363   2.586   1.518   2.343
    2MMT     Op 1364   2.561   1.236   2.189
    2MMT    Omg 1365   2.597   1.509   2.191
    2MMT     Oh 1366   2.336   1.404   2.182
    2MMT     Ob 1367   2.208   1.583   2.405
    2MMT     Ob 1368   2.566   1.373   2.406
    2MMT     Ob 1369   2.464   1.613   2.383
    2MMT      H 1370   2.286   1.319   2.184
    2MMT    Alo 1371   2.248   1.839   2.081
    2MMT    Sit 1372   2.323   1.674   2.347
    2MMT    Sit 1373   2.332   1.967   2.350
    2MMT     Op 1374   2.307   1.688   2.190
    2MMT     Op 1375   2.347   1.961   2.192
    2MMT     Oh 1376   2.599   1.851   2.183
    2MMT     Ob 1377   2.469   2.029   2.408
    2MMT     Ob 1378   2.313   1.822   2.407
    2MMT     Ob 1379   2.211   2.063   2.386
    2MMT      H 1380   2.555   1.763   2.194
    2MMT    Alo 1381   2.509   1.987   2.082
    2MMT    Sit 1382   2.427   1.260   1.813
    2MMT    Sit 1383   2.426   1.861   1.814
    2MMT     Op 1384   2.443   1.247   1.970
    2MMT     Op 1385   2.409   1.870   1.972
    2MMT     Oh 1386   2.666   1.975   1.982
    2MMT     Ob 1387   2.806   1.798   1.755
    2MMT     Ob 1388   2.447   2.007   1.756
    2MMT     Ob 1389   2.547   1.767   1.779
    2MMT      H 1390   2.718   2.057   1.965
    2MMT    Alo 1391   2.243   1.539   2.079
    2MMT    Sit 1392   2.690   1.709   1.819
    2MMT    Sit 1393   2.675   1.411   1.817
    2MMT    Omg 1394   2.707   1.701   1.971
    2MMT    Omg 1395   2.657   1.414   1.969
    2MMT     Oh 1396   2.410   1.526   1.980
    2MMT     Ob 1397   2.543   1.348   1.754
    2MMT     Ob 1398   2.700   1.559   1.759
    2MMT     Ob 1399   2.800   1.317   1.779
    2MMT      H 1400   2.461   1.608   1.960
    2MMT    Alo 1401   3.016   1.394   2.081
    2MMT    Sit 1402   3.093   1.221   2.347
    2MMT    Sit 1403   0.005   1.521   2.346
    2MMT     Op 1404   3.081   1.232   2.193
    2MMT     Op 1405   0.020   1.511   2.191
    2MMT   Ohmg 1406   2.867   1.401   2.185
    2MMT     Ob 1407   2.721   1.584   2.403
    2MMT     Ob 1408   3.091   1.372   2.409
    2MMT     Ob 1409   2.980   1.612   2.385
    2MMT      H 1410   2.816   1.317   2.195
    2MMT    Alo 1411   2.765   1.835   2.083
    2MMT    Sit 1412   2.838   1.675   2.344
    2MMT    Sit 1413   2.850   1.967   2.349
    2MMT    Omg 1414   2.824   1.693   2.193
    2MMT     Op 1415   2.860   1.961   2.191
    2MMT   Ohmg 1416   0.012   1.861   2.182
    2MMT     Ob 1417   2.986   2.029   2.406
    2MMT     Ob 1418   2.829   1.823   2.409
    2MMT     Ob 1419   2.727   2.062   2.386
    2MMT      H 1420   3.061   1.775   2.194
    2MMT    Alo 1421   3.027   1.987   2.080
    2MMT    Sit 1422   2.941   1.261   1.817
    2MMT    Sit 1423   2.942   1.860   1.814
    2MMT     Op 1424   2.961   1.247   1.973
    2MMT     Op 1425   2.925   1.869   1.970
    2MMT   Ohmg 1426   0.079   1.980   1.975
    2MMT     Ob 1427   0.225   1.794   1.753
    2MMT     Ob 1428   2.960   2.008   1.754
    2MMT     Ob 1429   3.063   1.766   1.776
    2MMT      H 1430   0.135   2.060   1.965
    2MMT    Mgo 1431   2.763   1.539   2.081
    2MMT    Sit 1432   0.109   1.703   1.815
    2MMT    Sit 1433   0.098   1.411   1.813
    2MMT    Omg 1434   0.124   1.687   1.966
    2MMT     Op 1435   0.087   1.418   1.970
    2MMT   Ohmg 1436   2.934   1.519   1.977
    2MMT     Ob 1437   3.057   1.350   1.756
    2MMT     Ob 1438   0.119   1.554   1.750
    2MMT     Ob 1439   0.219   1.315   1.776
    2MMT      H 1440   2.982   1.604   1.965
    2MMT    Alo 1441   0.449   2.290   2.071
    2MMT    Sit 1442   0.522   2.123   2.340
    2MMT    Sit 1443   0.527   2.416   2.336
    2MMT     Op 1444   0.502   2.133   2.184
    2MMT    Omg 1445   0.539   2.408   2.184
    2MMT     Oh 1446   0.281   2.305   2.172
    2MMT     Ob 1447   0.149   2.477   2.400
    2MMT     Ob 1448   0.507   2.272   2.397
    2MMT     Ob 1449   0.407   2.514   2.377
    2MMT      H 1450   0.238   2.219   2.193
    2MMT    Alo 1451   0.188   2.738   2.076
    2MMT    Sit 1452   0.264   2.568   2.341
    2MMT    Sit 1453   0.272   2.865   2.341
    2MMT     Op 1454   0.247   2.579   2.184
    2MMT     Op 1455   0.289   2.856   2.185
    2MMT     Oh 1456   0.547   2.748   2.175
    2MMT     Ob 1457   0.411   2.923   2.401
    2MMT     Ob 1458   0.249   2.719   2.399
    2MMT     Ob 1459   0.154   2.963   2.378
    2MMT      H 1460   0.501   2.661   2.188
    2MMT    Alo 1461   0.451   2.888   2.073
    2MMT    Sit 1462   0.367   2.157   1.806
    2MMT    Sit 1463   0.367   2.756   1.808
    2MMT     Op 1464   0.383   2.147   1.963
    2MMT     Op 1465   0.353   2.763   1.964
    2MMT     Oh 1466   0.611   2.876   1.973
    2MMT     Ob 1467   0.748   2.696   1.752
    2MMT     Ob 1468   0.385   2.902   1.746
    2MMT     Ob 1469   0.489   2.665   1.771
    2MMT      H 1470   0.660   2.961   1.972
    2MMT    Alo 1471   0.191   2.438   2.074
    2MMT    Sit 1472   0.632   2.604   1.812
    2MMT    Sit 1473   0.618   2.307   1.810
    2MMT    Omg 1474   0.648   2.596   1.965
    2MMT    Omg 1475   0.599   2.310   1.963
    2MMT     Oh 1476   0.351   2.428   1.970
    2MMT     Ob 1477   0.483   2.245   1.746
    2MMT     Ob 1478   0.641   2.454   1.753
    2MMT     Ob 1479   0.742   2.212   1.773
    2MMT      H 1480   0.405   2.510   1.962
    2MMT    Alo 1481   0.960   2.289   2.076
    2MMT    Sit 1482   1.038   2.121   2.344
    2MMT    Sit 1483   1.046   2.418   2.345
    2MMT     Op 1484   1.021   2.130   2.187
    2MMT     Op 1485   1.064   2.412   2.189
    2MMT   Ohmg 1486   0.810   2.298   2.180
    2MMT     Ob 1487   0.665   2.478   2.396
    2MMT     Ob 1488   1.027   2.271   2.402
    2MMT     Ob 1489   0.923   2.512   2.379
    2MMT      H 1490   0.759   2.215   2.192
    2MMT    Alo 1491   0.708   2.731   2.077
    2MMT    Sit 1492   0.782   2.574   2.338
    2MMT    Sit 1493   0.791   2.866   2.347
    2MMT    Omg 1494   0.767   2.590   2.186
    2MMT     Op 1495   0.806   2.861   2.189
    2MMT   Ohmg 1496   1.051   2.757   2.187
    2MMT     Ob 1497   0.926   2.929   2.407
    2MMT     Ob 1498   0.769   2.721   2.403
    2MMT     Ob 1499   0.668   2.961   2.379
    2MMT      H 1500   1.004   2.672   2.201
    2MMT    Alo 1501   0.967   2.883   2.085
    2MMT    Sit 1502   0.884   2.154   1.812
    2MMT    Sit 1503   0.882   2.757   1.815
    2MMT     Op 1504   0.902   2.141   1.968
    2MMT     Op 1505   0.864   2.764   1.971
    2MMT   Ohmg 1506   1.117   2.876   1.980
    2MMT     Ob 1507   1.263   2.696   1.765
    2MMT     Ob 1508   0.900   2.905   1.757
    2MMT     Ob 1509   1.005   2.665   1.781
    2MMT      H 1510   1.168   2.959   1.967
    2MMT    Mgo 1511   0.707   2.437   2.075
    2MMT    Sit 1512   1.146   2.601   1.821
    2MMT    Sit 1513   1.137   2.309   1.814
    2MMT    Omg 1514   1.161   2.584   1.972
    2MMT     Op 1515   1.121   2.312   1.970
    2MMT   Ohmg 1516   0.877   2.415   1.972
    2MMT     Ob 1517   1.002   2.241   1.752
    2MMT     Ob 1518   1.153   2.454   1.757
    2MMT     Ob 1519   1.260   2.215   1.779
    2MMT      H 1520   0.926   2.500   1.957
    2MMT    Alo 1521   1.477   2.285   2.084
    2MMT    Sit 1522   1.552   2.124   2.345
    2MMT    Sit 1523   1.561   2.416   2.352
    2MMT    Omg 1524   1.538   2.141   2.194
    2MMT     Op 1525   1.577   2.410   2.193
    2MMT     Oh 1526   1.318   2.299   2.185
    2MMT     Ob 1527   1.181   2.481   2.408
    2MMT     Ob 1528   1.541   2.271   2.410
    2MMT     Ob 1529   1.440   2.511   2.387
    2MMT      H 1530   1.269   2.214   2.197
    2MMT    Mgo 1531   1.221   2.737   2.084
    2MMT    Sit 1532   1.297   2.569   2.346
    2MMT    Sit 1533   1.309   2.867   2.348
    2MMT    Omg 1534   1.281   2.578   2.194
    2MMT    Omg 1535   1.328   2.864   2.195
    2MMT     Oh 1536   1.575   2.747   2.185
    2MMT     Ob 1537   1.445   2.929   2.410
    2MMT     Ob 1538   1.287   2.721   2.407
    2MMT     Ob 1539   1.186   2.964   2.384
    2MMT      H 1540   1.522   2.664   2.198
    2MMT    Alo 1541   1.479   2.881   2.086
    2MMT    Sit 1542   1.403   2.160   1.820
    2MMT    Sit 1543   1.400   2.758   1.823
    2MMT    Omg 1544   1.420   2.150   1.972
    2MMT    Omg 1545   1.389   2.770   1.975
    2MMT     Oh 1546   1.646   2.868   1.984
    2MMT     Ob 1547   1.781   2.696   1.757
    2MMT     Ob 1548   1.418   2.906   1.759
    2MMT     Ob 1549   1.522   2.666   1.783
    2MMT      H 1550   1.693   2.952   1.962
    2MMT    Alo 1551   1.220   2.441   2.082
    2MMT    Sit 1552   1.663   2.605   1.815
    2MMT    Sit 1553   1.654   2.311   1.814
    2MMT     Op 1554   1.682   2.593   1.973
    2MMT     Op 1555   1.641   2.319   1.973
    2MMT     Oh 1556   1.381   2.425   1.983
    2MMT     Ob 1557   1.519   2.248   1.757
    2MMT     Ob 1558   1.676   2.457   1.758
    2MMT     Ob 1559   1.775   2.215   1.780
    2MMT      H 1560   1.426   2.508   1.957
    2MMT    Alo 1561   1.993   2.287   2.080
    2MMT    Sit 1562   2.067   2.119   2.349
    2MMT    Sit 1563   2.076   2.414   2.348
    2MMT     Op 1564   2.051   2.131   2.192
    2MMT     Op 1565   2.090   2.406   2.192
    2MMT     Oh 1566   1.830   2.301   2.182
    2MMT     Ob 1567   1.698   2.478   2.409
    2MMT     Ob 1568   2.055   2.269   2.408
    2MMT     Ob 1569   1.956   2.511   2.385
    2MMT      H 1570   1.778   2.218   2.196
    2MMT    Alo 1571   1.737   2.735   2.083
    2MMT    Sit 1572   1.812   2.568   2.350
    2MMT    Sit 1573   1.821   2.862   2.349
    2MMT     Op 1574   1.796   2.580   2.193
    2MMT     Op 1575   1.833   2.855   2.192
    2MMT   Ohmg 1576   2.083   2.755   2.186
    2MMT     Ob 1577   1.961   2.921   2.405
    2MMT     Ob 1578   1.800   2.718   2.408
    2MMT     Ob 1579   1.703   2.962   2.385
    2MMT      H 1580   2.037   2.668   2.195
    2MMT    Alo 1581   2.001   2.881   2.081
    2MMT    Sit 1582   1.916   2.156   1.813
    2MMT    Sit 1583   1.916   2.757   1.816
    2MMT     Op 1584   1.935   2.145   1.972
    2MMT     Op 1585   1.901   2.764   1.972
    2MMT   Ohmg 1586   2.150   2.872   1.978
    2MMT     Ob 1587   2.297   2.691   1.762
    2MMT     Ob 1588   1.938   2.904   1.757
    2MMT     Ob 1589   2.038   2.662   1.779
    2MMT      H 1590   2.199   2.953   1.950
    2MMT    Alo 1591   1.736   2.436   2.083
    2MMT    Sit 1592   2.180   2.598   1.818
    2MMT    Sit 1593   2.168   2.307   1.811
    2MMT    Omg 1594   2.193   2.581   1.971
    2MMT     Op 1595   2.154   2.313   1.971
    2MMT     Oh 1596   1.901   2.422   1.982
    2MMT     Ob 1597   2.032   2.247   1.755
    2MMT     Ob 1598   2.190   2.452   1.754
    2MMT     Ob 1599   2.289   2.210   1.778
    2MMT      H 1600   1.951   2.504   1.960
    2MMT    Alo 1601   2.509   2.287   2.079
    2MMT    Sit 1602   2.585   2.119   2.348
    2MMT    Sit 1603   2.594   2.414   2.350
    2MMT     Op 1604   2.567   2.130   2.191
    2MMT     Op 1605   2.609   2.407   2.191
    2MMT     Oh 1606   2.350   2.299   2.179
    2MMT     Ob 1607   2.212   2.477   2.408
    2MMT     Ob 1608   2.571   2.268   2.407
    2MMT     Ob 1609   2.471   2.507   2.383
    2MMT      H 1610   2.300   2.216   2.195
    2MMT    Mgo 1611   2.254   2.734   2.082
    2MMT    Sit 1612   2.330   2.566   2.343
    2MMT    Sit 1613   2.342   2.863   2.344
    2MMT    Omg 1614   2.311   2.573   2.191
    2MMT    Omg 1615   2.360   2.861   2.193
    2MMT     Oh 1616   2.606   2.749   2.184
    2MMT     Ob 1617   2.474   2.927   2.410
    2MMT     Ob 1618   2.318   2.717   2.402
    2MMT     Ob 1619   2.218   2.958   2.381
    2MMT      H 1620   2.557   2.665   2.201
    2MMT    Alo 1621   2.511   2.881   2.084
    2MMT    Sit 1622   2.432   2.155   1.813
    2MMT    Sit 1623   2.431   2.756   1.821
    2MMT     Op 1624   2.450   2.145   1.971
    2MMT    Omg 1625   2.420   2.765   1.973
    2MMT     Oh 1626   2.679   2.870   1.982
    2MMT     Ob 1627   2.807   2.691   1.756
    2MMT     Ob 1628   2.453   2.902   1.760
    2MMT     Ob 1629   2.553   2.661   1.781
    2MMT      H 1630   2.731   2.953   1.975
    2MMT    Alo 1631   2.253   2.440   2.079
    2MMT    Sit 1632   2.693   2.601   1.819
    2MMT    Sit 1633   2.683   2.308   1.812
    2MMT     Op 1634   2.710   2.588   1.974
    2MMT     Op 1635   2.668   2.314   1.971
    2MMT     Oh 1636   2.417   2.424   1.978
    2MMT     Ob 1637   2.547   2.247   1.754
    2MMT     Ob 1638   2.704   2.454   1.757
    2MMT     Ob 1639   2.804   2.213   1.776
    2MMT      H 1640   2.461   2.511   1.964
    2MMT    Alo 1641   3.024   2.289   2.081
    2MMT    Sit 1642   0.007   2.120   2.345
    2MMT    Sit 1643   0.013   2.414   2.347
    2MMT     Op 1644   3.082   2.134   2.189
    2MMT     Op 1645   0.024   2.406   2.188
    2MMT     Oh 1646   2.862   2.302   2.181
    2MMT     Ob 1647   2.729   2.476   2.408
    2MMT     Ob 1648   3.089   2.269   2.404
    2MMT     Ob 1649   2.988   2.509   2.384
    2MMT      H 1650   2.817   2.217   2.204
    2MMT    Alo 1651   2.774   2.736   2.084
    2MMT    Sit 1652   2.846   2.568   2.350
    2MMT    Sit 1653   2.855   2.862   2.347
    2MMT     Op 1654   2.827   2.579   2.193
    2MMT    Omg 1655   2.864   2.851   2.193
    2MMT   Ohmg 1656   0.039   2.748   2.181
    2MMT     Ob 1657   2.992   2.926   2.402
    2MMT     Ob 1658   2.834   2.716   2.409
    2MMT     Ob 1659   2.733   2.958   2.386
    2MMT      H 1660   3.090   2.666   2.211
    2MMT    Mgo 1661   3.031   2.884   2.081
    2MMT    Sit 1662   2.948   2.157   1.814
    2MMT    Sit 1663   2.942   2.757   1.819
    2MMT     Op 1664   2.964   2.148   1.970
    2MMT    Omg 1665   2.926   2.757   1.970
    2MMT   Ohmg 1666   0.105   2.866   1.973
    2MMT     Ob 1667   0.230   2.693   1.748
    2MMT     Ob 1668   2.956   2.904   1.760
    2MMT     Ob 1669   3.066   2.667   1.773
    2MMT      H 1670   0.155   2.951   1.965
    2MMT    Alo 1671   2.769   2.437   2.083
    2MMT    Sit 1672   0.113   2.606   1.810
    2MMT    Sit 1673   0.103   2.311   1.808
    2MMT     Op 1674   0.130   2.592   1.965
    2MMT     Op 1675   0.091   2.319   1.966
    2MMT     Oh 1676   2.930   2.425   1.981
    2MMT     Ob 1677   3.062   2.248   1.753
    2MMT     Ob 1678   0.120   2.457   1.749
    2MMT     Ob 1679   0.224   2.218   1.769
    2MMT      H 1680   2.979   2.511   1.972
    2MMT    Mgo 1681   0.449   3.185   2.073
    2MMT    Sit 1682   0.525   3.015   2.337
    2MMT    Sit 1683   0.537   3.312   2.335
    2MMT    Omg 1684   0.508   3.023   2.184
    2MMT    Omg 1685   0.556   3.311   2.184
    2MMT   Ohmg 1686   0.280   3.206   2.178
    2MMT     Ob 1687   0.155   3.374   2.397
    2MMT     Ob 1688   0.513   3.167   2.393
    2MMT     Ob 1689   0.414   3.411   2.373
    2MMT      H 1690   0.232   3.121   2.193
    2MMT    Alo 1691   0.187   0.049   2.072
    2MMT    Sit 1692   0.268   3.465   2.336
    2MMT    Sit 1693   0.271   0.173   2.339
    2MMT     Op 1694   0.251   3.477   2.181
    2MMT     Op 1695   0.289   0.167   2.182
    2MMT     Oh 1696   0.543   0.061   2.172
    2MMT     Ob 1697   0.407   0.234   2.399
    2MMT     Ob 1698   0.253   0.028   2.396
    2MMT     Ob 1699   0.150   0.270   2.374
    2MMT      H 1700   0.498   3.560   2.183
    2MMT    Alo 1701   0.447   0.196   2.073
    2MMT    Sit 1702   0.374   3.050   1.811
    2MMT    Sit 1703   0.366   0.070   1.805
    2MMT    Omg 1704   0.390   3.034   1.962
    2MMT     Op 1705   0.353   0.077   1.961
    2MMT     Oh 1706   0.608   0.189   1.972
    2MMT     Ob 1707   0.746   0.006   1.744
    2MMT     Ob 1708   0.377   0.218   1.746
    2MMT     Ob 1709   0.489   3.567   1.766
    2MMT      H 1710   0.662   0.271   1.963
    2MMT    Alo 1711   0.196   3.331   2.073
    2MMT    Sit 1712   0.630   3.504   1.805
    2MMT    Sit 1713   0.627   3.209   1.811
    2MMT     Op 1714   0.646   3.493   1.962
    2MMT    Omg 1715   0.616   3.217   1.963
    2MMT   Ohmg 1716   0.347   3.325   1.970
    2MMT     Ob 1717   0.492   3.141   1.750
    2MMT     Ob 1718   0.640   3.355   1.747
    2MMT     Ob 1719   0.751   3.117   1.770
    2MMT      H 1720   0.399   3.408   1.962
    2MMT    Alo 1721   0.964   3.185   2.077
    2MMT    Sit 1722   1.042   3.017   2.347
    2MMT    Sit 1723   1.050   3.312   2.344
    2MMT     Op 1724   1.025   3.030   2.190
    2MMT     Op 1725   1.064   3.304   2.187
    2MMT     Oh 1726   0.806   3.198   2.179
    2MMT     Ob 1727   0.673   3.373   2.399
    2MMT     Ob 1728   1.027   3.169   2.404
    2MMT     Ob 1729   0.929   3.412   2.378
    2MMT      H 1730   0.757   3.113   2.195
    2MMT    Alo 1731   0.710   0.049   2.070
    2MMT    Sit 1732   0.785   3.465   2.336
    2MMT    Sit 1733   0.787   0.172   2.336
    2MMT     Op 1734   0.767   3.476   2.182
    2MMT    Omg 1735   0.798   0.164   2.184
    2MMT   Ohmg 1736   1.069   0.055   2.179
    2MMT     Ob 1737   0.921   0.234   2.398
    2MMT     Ob 1738   0.767   0.026   2.397
    2MMT     Ob 1739   0.662   0.266   2.376
    2MMT      H 1740   1.020   3.558   2.194
    2MMT    Mgo 1741   0.964   0.196   2.076
    2MMT    Sit 1742   0.891   3.055   1.813
    2MMT    Sit 1743   0.880   0.069   1.810
    2MMT     Op 1744   0.906   3.048   1.969
    2MMT    Omg 1745   0.859   0.071   1.962
    2MMT   Ohmg 1746   1.136   0.177   1.973
    2MMT     Ob 1747   1.264   0.004   1.753
    2MMT     Ob 1748   0.899   0.217   1.754
    2MMT     Ob 1749   1.004   3.561   1.774
    2MMT      H 1750   1.184   0.261   1.957
    2MMT    Alo 1751   0.705   3.332   2.075
    2MMT    Sit 1752   1.147   3.503   1.811
    2MMT    Sit 1753   1.142   3.207   1.809
    2MMT     Op 1754   1.164   3.488   1.967
    2MMT     Op 1755   1.128   3.216   1.967
    2MMT     Oh 1756   0.871   3.322   1.977
    2MMT     Ob 1757   1.009   3.143   1.752
    2MMT     Ob 1758   1.161   3.353   1.751
    2MMT     Ob 1759   1.266   3.114   1.775
    2MMT      H 1760   0.917   3.408   1.962
    2MMT    Alo 1761   1.481   3.186   2.077
    2MMT    Sit 1762   1.560   3.016   2.348
    2MMT    Sit 1763   1.564   3.314   2.341
    2MMT     Op 1764   1.543   3.026   2.191
    2MMT     Op 1765   1.578   3.303   2.185
    2MMT     Oh 1766   1.322   3.197   2.178
    2MMT     Ob 1767   1.187   3.372   2.402
    2MMT     Ob 1768   1.544   3.168   2.404
    2MMT     Ob 1769   1.443   3.408   2.378
    2MMT      H 1770   1.275   3.111   2.191
    2MMT    Alo 1771   1.220   0.049   2.076
    2MMT    Sit 1772   1.300   3.466   2.341
    2MMT    Sit 1773   1.303   0.175   2.346
    2MMT     Op 1774   1.282   3.474   2.186
    2MMT     Op 1775   1.319   0.167   2.189
    2MMT   Ohmg 1776   1.569   0.064   2.185
    2MMT     Ob 1777   1.439   0.234   2.405
    2MMT     Ob 1778   1.283   0.026   2.402
    2MMT     Ob 1779   1.180   0.269   2.381
    2MMT      H 1780   1.519   3.568   2.202
    2MMT    Alo 1781   1.481   0.194   2.082
    2MMT    Sit 1782   1.407   3.056   1.814
    2MMT    Sit 1783   1.399   0.068   1.813
    2MMT     Op 1784   1.426   3.048   1.970
    2MMT     Op 1785   1.382   0.072   1.970
    2MMT   Ohmg 1786   1.632   0.187   1.978
    2MMT     Ob 1787   1.781   0.004   1.756
    2MMT     Ob 1788   1.414   0.215   1.757
    2MMT     Ob 1789   1.522   3.560   1.777
    2MMT      H 1790   1.677   0.273   1.962
    2MMT    Alo 1791   1.224   3.335   2.075
    2MMT    Sit 1792   1.664   3.500   1.815
    2MMT    Sit 1793   1.659   3.206   1.808
    2MMT    Omg 1794   1.680   3.480   1.966
    2MMT     Op 1795   1.645   3.214   1.965
    2MMT     Oh 1796   1.386   3.322   1.976
    2MMT     Ob 1797   1.523   3.144   1.751
    2MMT     Ob 1798   1.679   3.351   1.749
    2MMT     Ob 1799   1.783   3.114   1.773
    2MMT      H 1800   1.435   3.408   1.961
    2MMT    Alo 1801   1.997   3.185   2.077
    2MMT    Sit 1802   2.075   3.013   2.344
    2MMT    Sit 1803   2.080   3.309   2.347
    2MMT     Op 1804   2.056   3.026   2.189
    2MMT     Op 1805   2.099   3.302   2.190
    2MMT     Oh 1806   1.842   3.196   2.176
    2MMT     Ob 1807   1.701   3.372   2.399
    2MMT     Ob 1808   2.059   3.163   2.405
    2MMT     Ob 1809   1.960   3.404   2.380
    2MMT      H 1810   1.791   3.113   2.192
    2MMT    Mgo 1811   1.737   0.048   2.079
    2MMT    Sit 1812   1.816   3.462   2.338
    2MMT    Sit 1813   1.824   0.174   2.344
    2MMT    Omg 1814   1.799   3.471   2.186
    2MMT    Omg 1815   1.843   0.171   2.192
    2MMT     Oh 1816   2.094   0.055   2.182
    2MMT     Ob 1817   1.960   0.233   2.407
    2MMT     Ob 1818   1.803   0.024   2.400
    2MMT     Ob 1819   1.699   0.266   2.384
    2MMT      H 1820   2.040   3.560   2.194
    2MMT    Alo 1821   1.991   0.195   2.082
    2MMT    Sit 1822   1.924   3.054   1.812
    2MMT    Sit 1823   1.915   0.071   1.816
    2MMT     Op 1824   1.940   3.046   1.969
    2MMT    Omg 1825   1.904   0.078   1.969
    2MMT     Oh 1826   2.161   0.182   1.981
    2MMT     Ob 1827   2.295   0.008   1.753
    2MMT     Ob 1828   1.934   0.216   1.756
    2MMT     Ob 1829   2.039   3.560   1.778
    2MMT      H 1830   2.204   0.269   1.965
    2MMT    Alo 1831   1.741   3.339   2.072
    2MMT    Sit 1832   2.181   3.504   1.814
    2MMT    Sit 1833   2.176   3.206   1.815
    2MMT     Op 1834   2.200   3.493   1.971
    2MMT     Op 1835   2.159   3.214   1.971
    2MMT     Oh 1836   1.904   3.325   1.974
    2MMT     Ob 1837   2.041   3.146   1.754
    2MMT     Ob 1838   2.199   3.353   1.757
    2MMT     Ob 1839   2.299   3.114   1.782
    2MMT      H 1840   1.948   3.412   1.962
    2MMT    Alo 1841   2.514   3.181   2.085
    2MMT    Sit 1842   2.592   3.016   2.351
    2MMT    Sit 1843   2.597   3.310   2.352
    2MMT     Op 1844   2.574   3.030   2.194
    2MMT     Op 1845   2.609   3.302   2.194
    2MMT     Oh 1846   2.352   3.192   2.184
    2MMT     Ob 1847   2.217   3.369   2.408
    2MMT     Ob 1848   2.576   3.166   2.411
    2MMT     Ob 1849   2.475   3.407   2.387
    2MMT      H 1850   2.306   3.104   2.194
    2MMT    Alo 1851   2.252   0.047   2.079
    2MMT    Sit 1852   2.331   3.461   2.349
    2MMT    Sit 1853   2.335   0.170   2.345
    2MMT     Op 1854   2.315   3.470   2.192
    2MMT     Op 1855   2.348   0.162   2.188
    2MMT     Oh 1856   2.606   0.063   2.174
    2MMT     Ob 1857   2.473   0.229   2.401
    2MMT     Ob 1858   2.313   0.025   2.405
    2MMT     Ob 1859   2.216   0.268   2.382
    2MMT      H 1860   2.563   3.565   2.200
    2MMT    Alo 1861   2.512   0.196   2.075
    2MMT    Sit 1862   2.440   3.050   1.817
    2MMT    Sit 1863   2.430   0.072   1.808
    2MMT     Op 1864   2.458   3.041   1.974
    2MMT     Op 1865   2.418   0.079   1.966
    2MMT     Oh 1866   2.674   0.190   1.973
    2MMT     Ob 1867   2.809   0.004   1.747
    2MMT     Ob 1868   2.446   0.217   1.750
    2MMT     Ob 1869   2.552   3.563   1.772
    2MMT      H 1870   2.727   0.273   1.968
    2MMT    Alo 1871   2.257   3.330   2.084
    2MMT    Sit 1872   2.693   3.503   1.809
    2MMT    Sit 1873   2.690   3.207   1.816
    2MMT     Op 1874   2.709   3.494   1.967
    2MMT     Op 1875   2.674   3.215   1.973
    2MMT     Oh 1876   2.417   3.319   1.984
    2MMT     Ob 1877   2.555   3.142   1.757
    2MMT     Ob 1878   2.702   3.353   1.755
    2MMT     Ob 1879   2.814   3.119   1.780
    2MMT      H 1880   2.466   3.402   1.966
    2MMT    Alo 1881   3.029   3.180   2.084
    2MMT    Sit 1882   0.010   3.021   2.343
    2MMT    Sit 1883   0.016   3.313   2.345
    2MMT    Omg 1884   3.089   3.038   2.192
    2MMT     Op 1885   0.026   3.304   2.187
    2MMT     Oh 1886   2.865   3.195   2.184
    2MMT     Ob 1887   2.733   3.371   2.408
    2MMT     Ob 1888   3.092   3.169   2.407
    2MMT     Ob 1889   2.991   3.410   2.382
    2MMT      H 1890   2.823   3.108   2.202
    2MMT    Alo 1891   2.772   0.049   2.073
    2MMT    Sit 1892   2.847   3.463   2.346
    2MMT    Sit 1893   2.851   0.171   2.338
    2MMT     Op 1894   2.827   3.470   2.189
    2MMT    Omg 1895   2.862   0.160   2.184
    2MMT   Ohmg 1896   0.039   0.058   2.176
    2MMT     Ob 1897   2.988   0.233   2.395
    2MMT     Ob 1898   2.829   0.026   2.401
    2MMT     Ob 1899   2.729   0.269   2.375
    2MMT      H 1900   3.092   3.561   2.206
    2MMT    Mgo 1901   3.028   0.195   2.074
    2MMT    Sit 1902   2.955   3.057   1.820
    2MMT    Sit 1903   2.942   0.067   1.810
    2MMT    Omg 1904   2.971   3.047   1.971
    2MMT    Omg 1905   2.924   0.069   1.961
    2MMT   Ohmg 1906   0.104   0.180   1.969
    2MMT     Ob 1907   0.231   0.005   1.745
    2MMT     Ob 1908   2.959   0.216   1.751
    2MMT     Ob 1909   3.068   3.564   1.768
    2MMT      H 1910   0.149   0.267   1.968
    2MMT    Alo 1911   2.773   3.331   2.083
    2MMT    Sit 1912   0.114   3.503   1.808
    2MMT    Sit 1913   0.111   3.206   1.810
    2MMT     Op 1914   0.130   3.493   1.962
    2MMT     Op 1915   0.098   3.215   1.966
    2MMT     Oh 1916   2.928   3.322   1.982
    2MMT     Ob 1917   3.072   3.141   1.754
    2MMT     Ob 1918   0.125   3.353   1.748
    2MMT     Ob 1919   0.234   3.115   1.771
    2MMT      H 1920   2.979   3.406   1.972
    3Na     Na+ 1921   2.786   2.609   1.354
    4Na     Na+ 1922   0.700   0.063   0.699
    5Na     Na+ 1923   1.462   3.401   0.737
    6Na     Na+ 1924   0.618   0.638   0.691
    7Na     Na+ 1925   0.186   0.810   1.493
    8Na     Na+ 1926   0.001   0.125   1.412
    9Na     Na+ 1927   2.082   1.213   0.744
   10Na     Na+ 1928   0.720   0.687   1.322
   11Na     Na+ 1929   2.909   3.321   0.760
   12Na     Na+ 1930   0.479   2.884   1.381
   13Na     Na+ 1931   2.544   0.601   1.330
   14Na     Na+ 1932   0.685   2.607   0.772
   15Na     Na+ 1933   2.760   2.119   0.746
   16Na     Na+ 1934   2.763   1.229   0.582
   17Na     Na+ 1935   2.106   3.499   1.339
   18Na     Na+ 1936   0.748   1.942   0.705
   19Na     Na+ 1937   0.676   3.435   3.560
   20Na     Na+ 1938   0.193   1.325   2.561
   21Na     Na+ 1939   2.253   2.160   2.763
   22Na     Na+ 1940   1.461   2.153   2.810
   23Na     Na+ 1941   2.084   0.108   2.861
   24Na     Na+ 1942   0.069   0.885   3.417
   25Na     Na+ 1943   0.001   2.646   3.285
   26Na     Na+ 1944   2.763   2.917   3.397
   27Na     Na+ 1945   2.869   1.451   3.434
   28Na     Na+ 1946   0.673   3.475   2.806
   29Na     Na+ 1947   1.364   1.374   2.906
   30Na     Na+ 1948   2.065   1.433   3.546
   31Na     Na+ 1949   1.439   2.832   3.441
   32Na     Na+ 1950   2.090   3.496   3.444
   33Na     Na+ 1951   0.764   0.275   2.760
   34Na     Na+ 1952   1.276   0.071   3.572
   35SOL     OW 1953   0.242   0.305   0.960
   35SOL    HW1 1954   0.291   0.263   1.037
   35SOL    HW2 1955   0.169   0.245   0.935
   36SOL     OW 1956   0.059   0.352   0.630
   36SOL    HW1 1957   3.066   0.385   0.654
   36SOL    HW2 1958   0.054   0.313   0.539
   37SOL     OW 1959   0.565   1.190   1.124
   37SOL    HW1 1960   0.512   1.202   1.042
   37SOL    HW2 1961   0.594   1.282   1.153
   38SOL     OW 1962   1.643   0.609   0.855
   38SOL    HW1 1963   1.708   0.673   0.814
   38SOL    HW2 1964   1.694   0.565   0.930
   39SOL     OW 1965   1.072   0.643   0.687
   39SOL    HW1 1966   1.122   0.718   0.643
   39SOL    HW2 1967   1.061   0.670   0.782
   40SOL     OW 1968   0.760   1.051   1.011
   40SOL    HW1 1969   0.688   1.090   1.068
   40SOL    HW2 1970   0.792   1.131   0.958
   41SOL     OW 1971   0.658   0.864   0.668
   41SOL    HW1 1972   0.750   0.884   0.701
   41SOL    HW2 1973   0.612   0.953   0.662
   42SOL     OW 1974   1.536   0.419   0.699
   42SOL    HW1 1975   1.448   0.444   0.657
   42SOL    HW2 1976   1.568   0.498   0.752
   43SOL     OW 1977   0.323   1.557   0.517
   43SOL    HW1 1978   0.316   1.652   0.547
   43SOL    HW2 1979   0.314   1.560   0.419
   44SOL     OW 1980   0.314   1.309   0.609
   44SOL    HW1 1981   0.328   1.401   0.572
   44SOL    HW2 1982   0.221   1.284   0.589
   45SOL     OW 1983   0.293   1.017   0.842
   45SOL    HW1 1984   0.298   0.922   0.874
   45SOL    HW2 1985   0.235   1.070   0.904
   46SOL     OW 1986   0.620   1.663   1.336
   46SOL    HW1 1987   0.540   1.643   1.392
   46SOL    HW2 1988   0.656   1.751   1.367
   47SOL     OW 1989   0.190   0.605   0.616
   47SOL    HW1 1990   0.122   0.544   0.577
   47SOL    HW2 1991   0.143   0.683   0.652
   48SOL     OW 1992   1.603   0.843   0.626
   48SOL    HW1 1993   1.690   0.798   0.615
   48SOL    HW2 1994   1.600   0.917   0.558
   49SOL     OW 1995   1.621   1.059   0.481
   49SOL    HW1 1996   1.670   1.078   0.398
   49SOL    HW2 1997   1.615   1.144   0.534
   50SOL     OW 1998   0.234   0.858   1.251
   50SOL    HW1 1999   0.312   0.914   1.226
   50SOL    HW2 2000   0.175   0.857   1.172
   51SOL     OW 2001   1.103   1.667   1.485
   51SOL    HW1 2002   1.121   1.755   1.440
   51SOL    HW2 2003   1.178   1.607   1.462
   52SOL     OW 2004   1.389   1.329   0.928
   52SOL    HW1 2005   1.337   1.324   1.012
   52SOL    HW2 2006   1.386   1.236   0.889
   53SOL     OW 2007   1.588   1.569   0.598
   53SOL    HW1 2008   1.602   1.551   0.501
   53SOL    HW2 2009   1.516   1.510   0.627
   54SOL     OW 2010   1.233   0.351   0.904
   54SOL    HW1 2011   1.140   0.317   0.914
   54SOL    HW2 2012   1.285   0.311   0.979
   55SOL     OW 2013   1.346   0.419   1.513
   55SOL    HW1 2014   1.311   0.476   1.586
   55SOL    HW2 2015   1.442   0.411   1.531
   56SOL     OW 2016   0.928   0.822   1.483
   56SOL    HW1 2017   1.003   0.766   1.453
   56SOL    HW2 2018   0.903   0.881   1.408
   57SOL     OW 2019   1.333   1.110   0.582
   57SOL    HW1 2020   1.398   1.088   0.509
   57SOL    HW2 2021   1.255   1.149   0.535
   58SOL     OW 2022   0.409   1.678   0.841
   58SOL    HW1 2023   0.451   1.587   0.851
   58SOL    HW2 2024   0.483   1.744   0.845
   59SOL     OW 2025   1.726   1.008   0.826
   59SOL    HW1 2026   1.660   0.977   0.758
   59SOL    HW2 2027   1.674   1.021   0.912
   60SOL     OW 2028   1.207   1.411   1.410
   60SOL    HW1 2029   1.209   1.384   1.505
   60SOL    HW2 2030   1.112   1.427   1.385
   61SOL     OW 2031   1.408   0.698   0.730
   61SOL    HW1 2032   1.455   0.640   0.795
   61SOL    HW2 2033   1.482   0.749   0.684
   62SOL     OW 2034   0.198   0.251   1.435
   62SOL    HW1 2035   0.192   0.349   1.437
   62SOL    HW2 2036   0.258   0.226   1.510
   63SOL     OW 2037   0.310   1.666   1.165
   63SOL    HW1 2038   0.356   1.595   1.216
   63SOL    HW2 2039   0.292   1.632   1.074
   64SOL     OW 2040   0.940   1.581   0.861
   64SOL    HW1 2041   1.028   1.536   0.868
   64SOL    HW2 2042   0.884   1.525   0.800
   65SOL     OW 2043   0.447   0.638   0.550
   65SOL    HW1 2044   0.473   0.641   0.454
   65SOL    HW2 2045   0.347   0.634   0.553
   66SOL     OW 2046   0.887   1.412   1.115
   66SOL    HW1 2047   0.871   1.369   1.027
   66SOL    HW2 2048   0.958   1.360   1.163
   67SOL     OW 2049   1.278   0.556   1.296
   67SOL    HW1 2050   1.314   0.504   1.374
   67SOL    HW2 2051   1.320   0.647   1.302
   68SOL     OW 2052   0.812   1.282   0.889
   68SOL    HW1 2053   0.909   1.265   0.867
   68SOL    HW2 2054   0.779   1.329   0.807
   69SOL     OW 2055   0.886   0.483   0.894
   69SOL    HW1 2056   0.883   0.484   0.794
   69SOL    HW2 2057   0.927   0.395   0.919
   70SOL     OW 2058   0.585   0.169   0.527
   70SOL    HW1 2059   0.487   0.159   0.532
   70SOL    HW2 2060   0.602   0.231   0.451
   71SOL     OW 2061   1.019   0.607   1.337
   71SOL    HW1 2062   1.006   0.544   1.412
   71SOL    HW2 2063   1.115   0.597   1.311
   72SOL     OW 2064   1.194   1.465   0.766
   72SOL    HW1 2065   1.217   1.531   0.696
   72SOL    HW2 2066   1.275   1.447   0.820
   73SOL     OW 2067   0.515   1.099   0.709
   73SOL    HW1 2068   0.435   1.071   0.763
   73SOL    HW2 2069   0.479   1.143   0.628
   74SOL     OW 2070   0.606   0.211   1.086
   74SOL    HW1 2071   0.656   0.164   1.157
   74SOL    HW2 2072   0.512   0.218   1.116
   75SOL     OW 2073   0.839   0.460   0.617
   75SOL    HW1 2074   0.874   0.538   0.567
   75SOL    HW2 2075   0.892   0.384   0.584
   76SOL     OW 2076   0.933   0.053   0.746
   76SOL    HW1 2077   0.957   0.035   0.651
   76SOL    HW2 2078   0.963   3.559   0.796
   77SOL     OW 2079   1.379   1.078   0.839
   77SOL    HW1 2080   1.326   0.997   0.860
   77SOL    HW2 2081   1.367   1.091   0.739
   78SOL     OW 2082   1.612   1.254   0.659
   78SOL    HW1 2083   1.685   1.234   0.722
   78SOL    HW2 2084   1.529   1.265   0.712
   79SOL     OW 2085   1.667   1.143   1.464
   79SOL    HW1 2086   1.763   1.115   1.453
   79SOL    HW2 2087   1.673   1.235   1.500
   80SOL     OW 2088   1.053   1.239   1.251
   80SOL    HW1 2089   0.972   1.215   1.304
   80SOL    HW2 2090   1.131   1.232   1.312
   81SOL     OW 2091   1.060   1.085   1.040
   81SOL    HW1 2092   1.050   1.148   1.118
   81SOL    HW2 2093   1.065   1.141   0.957
   82SOL     OW 2094   1.563   1.035   1.037
   82SOL    HW1 2095   1.548   1.100   1.113
   82SOL    HW2 2096   1.485   1.047   0.975
   83SOL     OW 2097   0.110   1.471   1.242
   83SOL    HW1 2098   0.101   1.566   1.216
   83SOL    HW2 2099   0.208   1.455   1.252
   84SOL     OW 2100   0.374   1.405   1.229
   84SOL    HW1 2101   0.370   1.343   1.153
   84SOL    HW2 2102   0.472   1.423   1.245
   85SOL     OW 2103   0.489   0.703   1.481
   85SOL    HW1 2104   0.503   0.795   1.513
   85SOL    HW2 2105   0.505   0.644   1.558
   86SOL     OW 2106   1.488   0.687   1.529
   86SOL    HW1 2107   1.425   0.748   1.575
   86SOL    HW2 2108   1.571   0.740   1.513
   87SOL     OW 2109   0.596   0.819   1.003
   87SOL    HW1 2110   0.664   0.861   0.944
   87SOL    HW2 2111   0.585   0.882   1.078
   88SOL     OW 2112   1.306   0.813   0.983
   88SOL    HW1 2113   1.239   0.791   0.915
   88SOL    HW2 2114   1.346   0.727   1.012
   89SOL     OW 2115   0.346   0.189   1.186
   89SOL    HW1 2116   0.318   0.223   1.275
   89SOL    HW2 2117   0.362   0.092   1.196
   90SOL     OW 2118   0.109   1.199   1.231
   90SOL    HW1 2119   0.164   1.173   1.309
   90SOL    HW2 2120   0.097   1.298   1.239
   91SOL     OW 2121   0.332   0.126   0.646
   91SOL    HW1 2122   0.339   0.225   0.640
   91SOL    HW2 2123   0.291   0.109   0.734
   92SOL     OW 2124   1.024   0.707   0.957
   92SOL    HW1 2125   1.057   0.712   1.050
   92SOL    HW2 2126   0.975   0.619   0.947
   93SOL     OW 2127   0.124   1.363   1.492
   93SOL    HW1 2128   0.092   1.411   1.411
   93SOL    HW2 2129   0.133   1.429   1.564
   94SOL     OW 2130   1.061   1.243   0.826
   94SOL    HW1 2131   1.053   1.175   0.752
   94SOL    HW2 2132   1.111   1.322   0.789
   95SOL     OW 2133   0.343   0.764   0.929
   95SOL    HW1 2134   0.441   0.778   0.945
   95SOL    HW2 2135   0.318   0.675   0.962
   96SOL     OW 2136   1.095   0.256   1.386
   96SOL    HW1 2137   1.133   0.254   1.477
   96SOL    HW2 2138   1.168   0.284   1.326
   97SOL     OW 2139   0.147   1.685   0.908
   97SOL    HW1 2140   0.102   1.601   0.878
   97SOL    HW2 2141   0.242   1.679   0.876
   98SOL     OW 2142   0.536   1.446   0.884
   98SOL    HW1 2143   0.630   1.469   0.908
   98SOL    HW2 2144   0.539   1.367   0.826
   99SOL     OW 2145   0.137   0.551   1.050
   99SOL    HW1 2146   0.171   0.468   1.006
   99SOL    HW2 2147   0.117   0.529   1.144
  100SOL     OW 2148   0.692   0.494   1.183
  100SOL    HW1 2149   0.660   0.401   1.191
  100SOL    HW2 2150   0.748   0.496   1.102
  101SOL     OW 2151   0.927   1.502   1.380
  101SOL    HW1 2152   0.898   1.540   1.293
  101SOL    HW2 2153   0.971   1.577   1.431
  102SOL     OW 2154   1.286   1.015   1.158
  102SOL    HW1 2155   1.312   0.939   1.098
  102SOL    HW2 2156   1.198   1.044   1.122
  103SOL     OW 2157   1.208   1.594   1.061
  103SOL    HW1 2158   1.301   1.621   1.046
  103SOL    HW2 2159   1.206   1.531   1.136
  104SOL     OW 2160   0.118   1.180   0.967
  104SOL    HW1 2161   0.117   1.187   1.068
  104SOL    HW2 2162   0.027   1.156   0.939
  105SOL     OW 2163   1.689   0.123   0.543
  105SOL    HW1 2164   1.743   0.130   0.460
  105SOL    HW2 2165   1.597   0.103   0.517
  106SOL     OW 2166   1.226   0.869   0.654
  106SOL    HW1 2167   1.296   0.799   0.676
  106SOL    HW2 2168   1.274   0.943   0.609
  107SOL     OW 2169   0.810   1.165   1.345
  107SOL    HW1 2170   0.793   1.208   1.433
  107SOL    HW2 2171   0.744   1.207   1.285
  108SOL     OW 2172   1.626   1.576   1.319
  108SOL    HW1 2173   1.627   1.561   1.222
  108SOL    HW2 2174   1.573   1.660   1.335
  109SOL     OW 2175   1.746   0.134   0.908
  109SOL    HW1 2176   1.786   0.095   0.826
  109SOL    HW2 2177   1.653   0.162   0.882
  110SOL     OW 2178   0.352   0.380   0.717
  110SOL    HW1 2179   0.286   0.436   0.670
  110SOL    HW2 2180   0.317   0.365   0.809
  111SOL     OW 2181   0.792   0.907   1.262
  111SOL    HW1 2182   0.837   0.927   1.176
  111SOL    HW2 2183   0.789   0.997   1.308
  112SOL     OW 2184   0.365   1.152   1.395
  112SOL    HW1 2185   0.425   1.225   1.367
  112SOL    HW2 2186   0.322   1.182   1.478
  113SOL     OW 2187   1.527   1.213   1.239
  113SOL    HW1 2188   1.587   1.184   1.314
  113SOL    HW2 2189   1.455   1.265   1.280
  114SOL     OW 2190   1.019   1.038   0.666
  114SOL    HW1 2191   0.950   0.984   0.714
  114SOL    HW2 2192   1.092   0.973   0.645
  115SOL     OW 2193   0.991   0.234   0.939
  115SOL    HW1 2194   0.975   0.175   0.861
  115SOL    HW2 2195   0.997   0.176   1.019
  116SOL     OW 2196   1.609   0.381   1.277
  116SOL    HW1 2197   1.664   0.463   1.292
  116SOL    HW2 2198   1.671   0.314   1.239
  117SOL     OW 2199   0.701   0.208   1.385
  117SOL    HW1 2200   0.798   0.201   1.373
  117SOL    HW2 2201   0.684   0.209   1.482
  118SOL     OW 2202   1.371   0.805   1.297
  118SOL    HW1 2203   1.338   0.896   1.269
  118SOL    HW2 2204   1.462   0.816   1.334
  119SOL     OW 2205   0.401   1.599   1.477
  119SOL    HW1 2206   0.340   1.663   1.520
  119SOL    HW2 2207   0.425   1.531   1.544
  120SOL     OW 2208   1.646   0.816   1.166
  120SOL    HW1 2209   1.594   0.738   1.135
  120SOL    HW2 2210   1.612   0.896   1.116
  121SOL     OW 2211   1.703   0.279   1.515
  121SOL    HW1 2212   1.652   0.329   1.446
  121SOL    HW2 2213   1.667   0.302   1.604
  122SOL     OW 2214   1.668   0.864   1.433
  122SOL    HW1 2215   1.658   0.961   1.456
  122SOL    HW2 2216   1.674   0.856   1.334
  123SOL     OW 2217   1.385   1.678   1.527
  123SOL    HW1 2218   1.310   1.709   1.584
  123SOL    HW2 2219   1.422   1.596   1.566
  124SOL     OW 2220   0.868   0.886   0.833
  124SOL    HW1 2221   0.933   0.824   0.877
  124SOL    HW2 2222   0.842   0.953   0.903
  125SOL     OW 2223   0.046   1.436   0.833
  125SOL    HW1 2224   0.057   1.429   0.735
  125SOL    HW2 2225   0.091   1.357   0.874
  126SOL     OW 2226   0.115   1.107   0.642
  126SOL    HW1 2227   0.175   1.084   0.718
  126SOL    HW2 2228   0.169   1.095   0.561
  127SOL     OW 2229   0.646   1.315   1.504
  127SOL    HW1 2230   0.609   1.271   1.584
  127SOL    HW2 2231   0.702   1.391   1.536
  128SOL     OW 2232   1.767   0.167   1.177
  128SOL    HW1 2233   1.710   0.101   1.224
  128SOL    HW2 2234   1.749   0.160   1.079
  129SOL     OW 2235   1.633   1.397   1.038
  129SOL    HW1 2236   1.543   1.369   1.007
  129SOL    HW2 2237   1.663   1.332   1.108
  130SOL     OW 2238   0.774   1.442   0.682
  130SOL    HW1 2239   0.830   1.478   0.606
  130SOL    HW2 2240   0.688   1.422   0.638
  131SOL     OW 2241   1.376   0.234   1.099
  131SOL    HW1 2242   1.419   0.158   1.145
  131SOL    HW2 2243   1.388   0.312   1.159
  132SOL     OW 2244   0.976   1.752   1.088
  132SOL    HW1 2245   0.931   1.687   1.029
  132SOL    HW2 2246   1.069   1.719   1.097
  133SOL     OW 2247   0.642   1.435   1.205
  133SOL    HW1 2248   0.639   1.521   1.258
  133SOL    HW2 2249   0.738   1.431   1.173
  134SOL     OW 2250   1.261   0.436   0.651
  134SOL    HW1 2251   1.200   0.514   0.643
  134SOL    HW2 2252   1.254   0.403   0.746
  135SOL     OW 2253   1.498   0.189   0.836
  135SOL    HW1 2254   1.439   0.219   0.910
  135SOL    HW2 2255   1.508   0.268   0.774
  136SOL     OW 2256   0.862   1.532   0.459
  136SOL    HW1 2257   0.866   1.459   0.392
  136SOL    HW2 2258   0.828   1.613   0.413
  137SOL     OW 2259   1.982   0.262   0.940
  137SOL    HW1 2260   2.010   0.218   1.024
  137SOL    HW2 2261   1.889   0.233   0.921
  138SOL     OW 2262   1.790   0.356   0.633
  138SOL    HW1 2263   1.702   0.394   0.662
  138SOL    HW2 2264   1.766   0.266   0.598
  139SOL     OW 2265   2.272   1.176   1.111
  139SOL    HW1 2266   2.181   1.198   1.076
  139SOL    HW2 2267   2.284   1.229   1.193
  140SOL     OW 2268   2.839   0.654   0.706
  140SOL    HW1 2269   2.833   0.738   0.654
  140SOL    HW2 2270   2.770   0.660   0.777
  141SOL     OW 2271   2.479   1.063   1.005
  141SOL    HW1 2272   2.395   1.102   1.049
  141SOL    HW2 2273   2.524   1.144   0.970
  142SOL     OW 2274   2.381   1.008   0.664
  142SOL    HW1 2275   2.454   0.956   0.708
  142SOL    HW2 2276   2.301   0.951   0.659
  143SOL     OW 2277   2.055   1.305   0.998
  143SOL    HW1 2278   1.958   1.323   1.003
  143SOL    HW2 2279   2.102   1.380   0.950
  144SOL     OW 2280   2.154   0.341   1.415
  144SOL    HW1 2281   2.244   0.332   1.455
  144SOL    HW2 2282   2.090   0.352   1.489
  145SOL     OW 2283   1.968   1.343   0.594
  145SOL    HW1 2284   1.982   1.431   0.551
  145SOL    HW2 2285   1.887   1.305   0.553
  146SOL     OW 2286   2.006   1.036   0.863
  146SOL    HW1 2287   2.031   0.941   0.883
  146SOL    HW2 2288   1.909   1.044   0.885
  147SOL     OW 2289   1.931   0.584   0.573
  147SOL    HW1 2290   1.869   0.506   0.577
  147SOL    HW2 2291   1.889   0.658   0.624
  148SOL     OW 2292   2.312   1.262   0.683
  148SOL    HW1 2293   2.342   1.166   0.676
  148SOL    HW2 2294   2.311   1.298   0.591
  149SOL     OW 2295   2.491   1.722   0.576
  149SOL    HW1 2296   2.531   1.788   0.513
  149SOL    HW2 2297   2.398   1.707   0.545
  150SOL     OW 2298   1.916   0.912   1.183
  150SOL    HW1 2299   2.001   0.865   1.165
  150SOL    HW2 2300   1.839   0.855   1.156
  151SOL     OW 2301   2.845   1.652   1.444
  151SOL    HW1 2302   2.882   1.742   1.456
  151SOL    HW2 2303   2.843   1.610   1.533
  152SOL     OW 2304   2.675   0.766   1.426
  152SOL    HW1 2305   2.720   0.793   1.509
  152SOL    HW2 2306   2.630   0.849   1.392
  153SOL     OW 2307   2.675   0.438   1.169
  153SOL    HW1 2308   2.602   0.381   1.205
  153SOL    HW2 2309   2.667   0.430   1.070
  154SOL     OW 2310   1.841   0.773   0.754
  154SOL    HW1 2311   1.932   0.767   0.796
  154SOL    HW2 2312   1.806   0.864   0.778
  155SOL     OW 2313   1.872   1.686   1.503
  155SOL    HW1 2314   1.840   1.700   1.596
  155SOL    HW2 2315   1.801   1.719   1.443
  156SOL     OW 2316   2.268   0.193   0.854
  156SOL    HW1 2317   2.279   0.244   0.937
  156SOL    HW2 2318   2.272   0.257   0.778
  157SOL     OW 2319   2.091   1.684   0.794
  157SOL    HW1 2320   2.148   1.604   0.812
  157SOL    HW2 2321   2.149   1.765   0.797
  158SOL     OW 2322   2.890   1.374   1.402
  158SOL    HW1 2323   2.920   1.372   1.496
  158SOL    HW2 2324   2.850   1.464   1.386
  159SOL     OW 2325   2.173   1.105   1.602
  159SOL    HW1 2326   2.174   1.153   1.514
  159SOL    HW2 2327   2.112   1.154   1.661
  160SOL     OW 2328   1.963   1.666   1.167
  160SOL    HW1 2329   2.001   1.583   1.207
  160SOL    HW2 2330   1.930   1.642   1.075
  161SOL     OW 2331   2.633   1.548   0.872
  161SOL    HW1 2332   2.723   1.505   0.865
  161SOL    HW2 2333   2.579   1.517   0.795
  162SOL     OW 2334   2.548   1.363   1.104
  162SOL    HW1 2335   2.575   1.444   1.055
  162SOL    HW2 2336   2.622   1.334   1.162
  163SOL     OW 2337   3.034   0.570   1.376
  163SOL    HW1 2338   2.999   0.553   1.466
  163SOL    HW2 2339   3.007   0.662   1.351
  164SOL     OW 2340   2.629   0.449   0.889
  164SOL    HW1 2341   2.578   0.471   0.805
  164SOL    HW2 2342   2.669   0.361   0.868
  165SOL     OW 2343   2.291   0.081   0.569
  165SOL    HW1 2344   2.193   0.089   0.584
  165SOL    HW2 2345   2.312   0.126   0.483
  166SOL     OW 2346   2.859   1.424   0.749
  166SOL    HW1 2347   2.884   1.506   0.696
  166SOL    HW2 2348   2.929   1.418   0.819
  167SOL     OW 2349   2.925   1.647   0.616
  167SOL    HW1 2350   2.957   1.675   0.527
  167SOL    HW2 2351   2.855   1.712   0.645
  168SOL     OW 2352   1.815   0.562   1.315
  168SOL    HW1 2353   1.914   0.552   1.302
  168SOL    HW2 2354   1.801   0.618   1.395
  169SOL     OW 2355   2.293   0.236   1.134
  169SOL    HW1 2356   2.342   0.152   1.120
  169SOL    HW2 2357   2.199   0.211   1.155
  170SOL     OW 2358   2.547   0.449   0.627
  170SOL    HW1 2359   2.511   0.523   0.573
  170SOL    HW2 2360   2.567   0.376   0.563
  171SOL     OW 2361   2.689   0.101   0.755
  171SOL    HW1 2362   2.617   0.121   0.690
  171SOL    HW2 2363   2.686   0.004   0.772
  172SOL     OW 2364   2.730   1.217   1.266
  172SOL    HW1 2365   2.659   1.204   1.333
  172SOL    HW2 2366   2.805   1.260   1.318
  173SOL     OW 2367   2.600   0.184   1.290
  173SOL    HW1 2368   2.570   0.095   1.260
  173SOL    HW2 2369   2.675   0.168   1.351
  174SOL     OW 2370   2.634   1.052   1.547
  174SOL    HW1 2371   2.562   1.098   1.597
  174SOL    HW2 2372   2.696   1.018   1.617
  175SOL     OW 2373   2.154   0.772   1.190
  175SOL    HW1 2374   2.223   0.780   1.261
  175SOL    HW2 2375   2.111   0.683   1.204
  176SOL     OW 2376   2.940   0.367   1.212
  176SOL    HW1 2377   2.982   0.450   1.248
  176SOL    HW2 2378   2.851   0.393   1.176
  177SOL     OW 2379   2.107   1.068   0.532
  177SOL    HW1 2380   2.089   1.137   0.463
  177SOL    HW2 2381   2.092   0.981   0.489
  178SOL     OW 2382   2.313   0.533   0.853
  178SOL    HW1 2383   2.300   0.549   0.755
  178SOL    HW2 2384   2.365   0.610   0.885
  179SOL     OW 2385   2.921   1.340   1.094
  179SOL    HW1 2386   2.988   1.350   1.165
  179SOL    HW2 2387   2.852   1.278   1.128
  180SOL     OW 2388   2.077   1.434   1.239
  180SOL    HW1 2389   2.085   1.380   1.156
  180SOL    HW2 2390   2.165   1.472   1.263
  181SOL     OW 2391   2.321   0.815   0.983
  181SOL    HW1 2392   2.362   0.905   0.986
  181SOL    HW2 2393   2.257   0.809   1.060
  182SOL     OW 2394   2.994   0.780   1.023
  182SOL    HW1 2395   2.950   0.812   0.941
  182SOL    HW2 2396   3.062   0.713   0.996
  183SOL     OW 2397   2.036   0.170   1.205
  183SOL    HW1 2398   2.038   0.243   1.272
  183SOL    HW2 2399   1.938   0.152   1.190
  184SOL     OW 2400   1.829   1.257   1.202
  184SOL    HW1 2401   1.848   1.173   1.250
  184SOL    HW2 2402   1.837   1.330   1.268
  185SOL     OW 2403   2.025   0.110   0.662
  185SOL    HW1 2404   1.993   0.201   0.637
  185SOL    HW2 2405   2.076   0.122   0.746
  186SOL     OW 2406   2.693   0.707   0.945
  186SOL    HW1 2407   2.739   0.719   1.032
  186SOL    HW2 2408   2.666   0.611   0.937
  187SOL     OW 2409   1.782   1.396   1.468
  187SOL    HW1 2410   1.733   1.471   1.423
  187SOL    HW2 2411   1.835   1.435   1.541
  188SOL     OW 2412   2.069   0.770   0.890
  188SOL    HW1 2413   2.167   0.787   0.897
  188SOL    HW2 2414   2.056   0.676   0.922
  189SOL     OW 2415   2.072   0.505   0.960
  189SOL    HW1 2416   2.036   0.415   0.934
  189SOL    HW2 2417   2.161   0.512   0.913
  190SOL     OW 2418   2.881   0.195   1.407
  190SOL    HW1 2419   2.835   0.234   1.485
  190SOL    HW2 2420   2.880   0.261   1.332
  191SOL     OW 2421   1.863   1.638   0.914
  191SOL    HW1 2422   1.835   1.551   0.875
  191SOL    HW2 2423   1.946   1.666   0.863
  192SOL     OW 2424   2.226   1.452   0.859
  192SOL    HW1 2425   2.289   1.521   0.896
  192SOL    HW2 2426   2.281   1.388   0.806
  193SOL     OW 2427   1.801   0.516   1.045
  193SOL    HW1 2428   1.896   0.513   1.017
  193SOL    HW2 2429   1.799   0.533   1.144
  194SOL     OW 2430   3.063   0.885   1.482
  194SOL    HW1 2431   3.031   0.920   1.569
  194SOL    HW2 2432   3.019   0.939   1.412
  195SOL     OW 2433   2.400   0.470   1.208
  195SOL    HW1 2434   2.364   0.377   1.191
  195SOL    HW2 2435   2.368   0.524   1.132
  196SOL     OW 2436   1.913   1.053   1.403
  196SOL    HW1 2437   1.930   0.993   1.480
  196SOL    HW2 2438   1.914   0.995   1.320
  197SOL     OW 2439   2.900   1.609   1.041
  197SOL    HW1 2440   2.991   1.636   1.018
  197SOL    HW2 2441   2.902   1.512   1.065
  198SOL     OW 2442   2.408   1.534   1.550
  198SOL    HW1 2443   2.332   1.584   1.587
  198SOL    HW2 2444   2.469   1.597   1.507
  199SOL     OW 2445   2.958   0.902   0.646
  199SOL    HW1 2446   3.003   0.815   0.639
  199SOL    HW2 2447   3.008   0.964   0.588
  200SOL     OW 2448   2.527   0.957   1.280
  200SOL    HW1 2449   2.530   0.994   1.187
  200SOL    HW2 2450   2.534   1.033   1.342
  201SOL     OW 2451   2.128   1.209   1.367
  201SOL    HW1 2452   2.093   1.298   1.338
  201SOL    HW2 2453   2.048   1.151   1.380
  202SOL     OW 2454   2.369   0.752   1.366
  202SOL    HW1 2455   2.408   0.841   1.339
  202SOL    HW2 2456   2.332   0.763   1.457
  203SOL     OW 2457   2.136   1.619   1.458
  203SOL    HW1 2458   2.042   1.650   1.460
  203SOL    HW2 2459   2.143   1.545   1.522
  204SOL     OW 2460   2.300   0.704   0.626
  204SOL    HW1 2461   2.353   0.765   0.569
  204SOL    HW2 2462   2.221   0.676   0.574
  205SOL     OW 2463   2.380   1.654   0.925
  205SOL    HW1 2464   2.350   1.743   0.889
  205SOL    HW2 2465   2.479   1.651   0.924
  206SOL     OW 2466   2.583   0.911   0.809
  206SOL    HW1 2467   2.626   0.830   0.851
  206SOL    HW2 2468   2.543   0.961   0.885
  207SOL     OW 2469   1.781   1.405   0.820
  207SOL    HW1 2470   1.726   1.445   0.748
  207SOL    HW2 2471   1.725   1.401   0.904
  208SOL     OW 2472   2.163   0.387   0.595
  208SOL    HW1 2473   2.185   0.370   0.501
  208SOL    HW2 2474   2.080   0.442   0.595
  209SOL     OW 2475   2.071   0.523   1.231
  209SOL    HW1 2476   2.119   0.455   1.287
  209SOL    HW2 2477   2.082   0.499   1.134
  210SOL     OW 2478   0.252   1.957   0.932
  210SOL    HW1 2479   0.294   1.946   1.023
  210SOL    HW2 2480   0.197   1.876   0.919
  211SOL     OW 2481   0.094   2.057   0.628
  211SOL    HW1 2482   0.020   2.059   0.693
  211SOL    HW2 2483   0.074   1.987   0.561
  212SOL     OW 2484   0.575   2.884   1.151
  212SOL    HW1 2485   0.498   2.892   1.088
  212SOL    HW2 2486   0.618   2.974   1.151
  213SOL     OW 2487   1.460   3.115   0.664
  213SOL    HW1 2488   1.455   3.081   0.760
  213SOL    HW2 2489   1.401   3.055   0.611
  214SOL     OW 2490   0.735   2.745   0.961
  214SOL    HW1 2491   0.701   2.773   1.050
  214SOL    HW2 2492   0.801   2.816   0.938
  215SOL     OW 2493   0.365   2.997   1.012
  215SOL    HW1 2494   0.287   2.961   0.961
  215SOL    HW2 2495   0.417   3.059   0.952
  216SOL     OW 2496   1.435   3.095   1.264
  216SOL    HW1 2497   1.489   3.162   1.312
  216SOL    HW2 2498   1.394   3.037   1.333
  217SOL     OW 2499   0.495   2.076   1.403
  217SOL    HW1 2500   0.574   2.017   1.418
  217SOL    HW2 2501   0.417   2.030   1.443
  218SOL     OW 2502   0.310   3.244   0.522
  218SOL    HW1 2503   0.325   3.332   0.565
  218SOL    HW2 2504   0.302   3.260   0.424
  219SOL     OW 2505   1.122   2.913   1.566
  219SOL    HW1 2506   1.148   2.931   1.659
  219SOL    HW2 2507   1.079   2.824   1.566
  220SOL     OW 2508   0.314   2.998   0.610
  220SOL    HW1 2509   0.324   3.093   0.576
  220SOL    HW2 2510   0.228   2.968   0.574
  221SOL     OW 2511   0.627   3.375   1.347
  221SOL    HW1 2512   0.549   3.360   1.407
  221SOL    HW2 2513   0.695   3.426   1.399
  222SOL     OW 2514   1.506   1.824   1.340
  222SOL    HW1 2515   1.533   1.919   1.354
  222SOL    HW2 2516   1.462   1.791   1.424
  223SOL     OW 2517   0.240   2.283   0.598
  223SOL    HW1 2518   0.181   2.203   0.595
  223SOL    HW2 2519   0.184   2.359   0.628
  224SOL     OW 2520   0.619   2.984   0.674
  224SOL    HW1 2521   0.584   2.895   0.702
  224SOL    HW2 2522   0.568   3.008   0.593
  225SOL     OW 2523   1.265   2.814   1.295
  225SOL    HW1 2524   1.282   2.721   1.266
  225SOL    HW2 2525   1.313   2.823   1.383
  226SOL     OW 2526   0.874   3.443   0.560
  226SOL    HW1 2527   0.885   3.449   0.462
  226SOL    HW2 2528   0.778   3.421   0.576
  227SOL     OW 2529   0.220   2.600   1.189
  227SOL    HW1 2530   0.313   2.562   1.179
  227SOL    HW2 2531   0.159   2.525   1.170
  228SOL     OW 2532   1.415   3.026   0.904
  228SOL    HW1 2533   1.357   3.037   0.985
  228SOL    HW2 2534   1.417   2.926   0.889
  229SOL     OW 2535   1.611   3.317   0.591
  229SOL    HW1 2536   1.634   3.321   0.494
  229SOL    HW2 2537   1.572   3.226   0.606
  230SOL     OW 2538   1.214   2.029   0.905
  230SOL    HW1 2539   1.143   1.970   0.872
  230SOL    HW2 2540   1.267   1.975   0.969
  231SOL     OW 2541   0.804   2.274   1.405
  231SOL    HW1 2542   0.772   2.242   1.493
  231SOL    HW2 2543   0.767   2.210   1.336
  232SOL     OW 2544   0.976   2.581   1.471
  232SOL    HW1 2545   1.034   2.505   1.497
  232SOL    HW2 2546   0.902   2.545   1.417
  233SOL     OW 2547   0.138   2.481   0.761
  233SOL    HW1 2548   0.210   2.431   0.806
  233SOL    HW2 2549   0.117   2.561   0.814
  234SOL     OW 2550   1.296   2.768   0.585
  234SOL    HW1 2551   1.381   2.721   0.569
  234SOL    HW2 2552   1.274   2.811   0.498
  235SOL     OW 2553   0.580   1.899   0.867
  235SOL    HW1 2554   0.564   1.897   0.964
  235SOL    HW2 2555   0.552   1.989   0.834
  236SOL     OW 2556   1.193   3.133   1.429
  236SOL    HW1 2557   1.170   3.057   1.491
  236SOL    HW2 2558   1.134   3.123   1.351
  237SOL     OW 2559   1.382   2.402   0.733
  237SOL    HW1 2560   1.415   2.347   0.809
  237SOL    HW2 2561   1.461   2.432   0.682
  238SOL     OW 2562   0.243   1.967   1.427
  238SOL    HW1 2563   0.185   2.045   1.405
  238SOL    HW2 2564   0.222   1.939   1.520
  239SOL     OW 2565   0.306   3.384   1.183
  239SOL    HW1 2566   0.365   3.341   1.250
  239SOL    HW2 2567   0.289   3.318   1.113
  240SOL     OW 2568   0.931   3.284   0.862
  240SOL    HW1 2569   1.022   3.247   0.877
  240SOL    HW2 2570   0.896   3.236   0.781
  241SOL     OW 2571   0.886   3.121   1.125
  241SOL    HW1 2572   0.867   3.081   1.035
  241SOL    HW2 2573   0.957   3.065   1.168
  242SOL     OW 2574   0.810   2.996   0.899
  242SOL    HW1 2575   0.903   2.979   0.863
  242SOL    HW2 2576   0.752   3.010   0.820
  243SOL     OW 2577   0.610   1.824   0.569
  243SOL    HW1 2578   0.512   1.813   0.583
  243SOL    HW2 2579   0.625   1.813   0.472
  244SOL     OW 2580   1.079   2.305   1.368
  244SOL    HW1 2581   0.984   2.285   1.390
  244SOL    HW2 2582   1.134   2.261   1.438
  245SOL     OW 2583   1.185   3.156   0.772
  245SOL    HW1 2584   1.224   3.217   0.704
  245SOL    HW2 2585   1.258   3.128   0.833
  246SOL     OW 2586   0.494   2.739   0.713
  246SOL    HW1 2587   0.420   2.751   0.777
  246SOL    HW2 2588   0.456   2.746   0.622
  247SOL     OW 2589   1.263   3.386   0.614
  247SOL    HW1 2590   1.276   3.397   0.516
  247SOL    HW2 2591   1.167   3.401   0.630
  248SOL     OW 2592   0.149   2.228   1.348
  248SOL    HW1 2593   0.229   2.222   1.287
  248SOL    HW2 2594   0.178   2.279   1.427
  249SOL     OW 2595   0.936   1.817   0.729
  249SOL    HW1 2596   0.990   1.794   0.649
  249SOL    HW2 2597   0.944   1.739   0.792
  250SOL     OW 2598   1.386   2.769   0.852
  250SOL    HW1 2599   1.349   2.681   0.877
  250SOL    HW2 2600   1.385   2.776   0.753
  251SOL     OW 2601   1.424   2.252   0.960
  251SOL    HW1 2602   1.364   2.175   0.971
  251SOL    HW2 2603   1.511   2.228   1.000
  252SOL     OW 2604   1.583   2.859   0.647
  252SOL    HW1 2605   1.681   2.842   0.636
  252SOL    HW2 2606   1.571   2.957   0.650
  253SOL     OW 2607   1.677   2.828   1.488
  253SOL    HW1 2608   1.764   2.781   1.490
  253SOL    HW2 2609   1.699   2.926   1.498
  254SOL     OW 2610   1.043   2.946   1.258
  254SOL    HW1 2611   0.968   2.917   1.319
  254SOL    HW2 2612   1.125   2.899   1.294
  255SOL     OW 2613   1.041   2.775   1.042
  255SOL    HW1 2614   1.044   2.830   1.125
  255SOL    HW2 2615   1.060   2.835   0.964
  256SOL     OW 2616   0.447   2.472   1.181
  256SOL    HW1 2617   0.514   2.483   1.256
  256SOL    HW2 2618   0.417   2.376   1.189
  257SOL     OW 2619   1.237   2.091   1.200
  257SOL    HW1 2620   1.265   2.164   1.261
  257SOL    HW2 2621   1.147   2.115   1.167
  258SOL     OW 2622   0.127   3.161   1.243
  258SOL    HW1 2623   0.104   3.252   1.271
  258SOL    HW2 2624   0.218   3.141   1.280
  259SOL     OW 2625   0.637   2.171   0.812
  259SOL    HW1 2626   0.619   2.238   0.741
  259SOL    HW2 2627   0.683   2.220   0.887
  260SOL     OW 2628   1.236   3.052   1.093
  260SOL    HW1 2629   1.309   3.064   1.162
  260SOL    HW2 2630   1.183   2.974   1.125
  261SOL     OW 2631   0.389   3.076   1.267
  261SOL    HW1 2632   0.366   3.045   1.174
  261SOL    HW2 2633   0.481   3.115   1.260
  262SOL     OW 2634   0.603   2.516   0.974
  262SOL    HW1 2635   0.656   2.595   1.006
  262SOL    HW2 2636   0.534   2.498   1.045
  263SOL     OW 2637   1.309   2.500   1.011
  263SOL    HW1 2638   1.234   2.511   0.949
  263SOL    HW2 2639   1.353   2.413   0.990
  264SOL     OW 2640   0.367   1.921   1.171
  264SOL    HW1 2641   0.337   1.950   1.262
  264SOL    HW2 2642   0.353   1.821   1.171
  265SOL     OW 2643   0.110   2.897   1.201
  265SOL    HW1 2644   0.151   2.856   1.281
  265SOL    HW2 2645   0.103   2.996   1.219
  266SOL     OW 2646   0.757   2.303   1.006
  266SOL    HW1 2647   0.844   2.334   0.968
  266SOL    HW2 2648   0.696   2.384   1.005
  267SOL     OW 2649   0.330   1.808   0.623
  267SOL    HW1 2650   0.292   1.894   0.652
  267SOL    HW2 2651   0.349   1.755   0.705
  268SOL     OW 2652   0.985   2.409   0.896
  268SOL    HW1 2653   0.997   2.440   0.992
  268SOL    HW2 2654   1.049   2.335   0.882
  269SOL     OW 2655   1.049   2.929   0.817
  269SOL    HW1 2656   1.051   2.857   0.749
  269SOL    HW2 2657   1.103   3.006   0.784
  270SOL     OW 2658   0.389   2.191   0.944
  270SOL    HW1 2659   0.328   2.114   0.926
  270SOL    HW2 2660   0.464   2.185   0.880
  271SOL     OW 2661   1.137   2.099   1.549
  271SOL    HW1 2662   1.065   2.126   1.612
  271SOL    HW2 2663   1.220   2.098   1.602
  272SOL     OW 2664   1.138   1.899   1.372
  272SOL    HW1 2665   1.129   1.966   1.446
  272SOL    HW2 2666   1.179   1.949   1.297
  273SOL     OW 2667   0.177   3.361   0.871
  273SOL    HW1 2668   0.123   3.279   0.850
  273SOL    HW2 2669   0.269   3.331   0.890
  274SOL     OW 2670   0.516   3.159   0.868
  274SOL    HW1 2671   0.575   3.239   0.880
  274SOL    HW2 2672   0.556   3.106   0.793
  275SOL     OW 2673   0.981   2.440   1.159
  275SOL    HW1 2674   1.046   2.413   1.230
  275SOL    HW2 2675   0.894   2.404   1.188
  276SOL     OW 2676   1.349   2.537   1.537
  276SOL    HW1 2677   1.348   2.634   1.554
  276SOL    HW2 2678   1.339   2.524   1.439
  277SOL     OW 2679   0.714   2.122   1.204
  277SOL    HW1 2680   0.646   2.053   1.188
  277SOL    HW2 2681   0.722   2.180   1.123
  278SOL     OW 2682   0.281   2.765   1.393
  278SOL    HW1 2683   0.250   2.726   1.478
  278SOL    HW2 2684   0.257   2.700   1.320
  279SOL     OW 2685   1.662   3.308   1.073
  279SOL    HW1 2686   1.729   3.324   1.001
  279SOL    HW2 2687   1.633   3.214   1.060
  280SOL     OW 2688   1.223   3.316   1.045
  280SOL    HW1 2689   1.310   3.330   1.088
  280SOL    HW2 2690   1.199   3.221   1.062
  281SOL     OW 2691   0.132   2.864   0.937
  281SOL    HW1 2692   0.135   2.870   1.038
  281SOL    HW2 2693   0.042   2.830   0.916
  282SOL     OW 2694   1.674   1.843   0.560
  282SOL    HW1 2695   1.721   1.816   0.477
  282SOL    HW2 2696   1.627   1.763   0.594
  283SOL     OW 2697   0.810   2.882   1.364
  283SOL    HW1 2698   0.784   2.899   1.459
  283SOL    HW2 2699   0.761   2.947   1.309
  284SOL     OW 2700   1.597   3.330   1.347
  284SOL    HW1 2701   1.594   3.340   1.249
  284SOL    HW2 2702   1.514   3.368   1.388
  285SOL     OW 2703   1.735   1.871   0.912
  285SOL    HW1 2704   1.770   1.778   0.898
  285SOL    HW2 2705   1.649   1.879   0.861
  286SOL     OW 2706   0.808   2.642   1.243
  286SOL    HW1 2707   0.894   2.619   1.199
  286SOL    HW2 2708   0.824   2.726   1.295
  287SOL     OW 2709   1.005   2.688   0.686
  287SOL    HW1 2710   1.018   2.619   0.756
  287SOL    HW2 2711   1.082   2.682   0.625
  288SOL     OW 2712   1.604   2.087   1.293
  288SOL    HW1 2713   1.671   2.161   1.300
  288SOL    HW2 2714   1.650   2.014   1.241
  289SOL     OW 2715   0.708   1.905   1.437
  289SOL    HW1 2716   0.794   1.915   1.389
  289SOL    HW2 2717   0.729   1.890   1.533
  290SOL     OW 2718   1.353   2.524   1.273
  290SOL    HW1 2719   1.320   2.513   1.179
  290SOL    HW2 2720   1.451   2.509   1.268
  291SOL     OW 2721   0.630   2.489   1.364
  291SOL    HW1 2722   0.697   2.553   1.326
  291SOL    HW2 2723   0.682   2.411   1.399
  292SOL     OW 2724   1.416   2.824   1.507
  292SOL    HW1 2725   1.403   2.864   1.597
  292SOL    HW2 2726   1.515   2.819   1.494
  293SOL     OW 2727   0.403   3.301   1.482
  293SOL    HW1 2728   0.331   3.349   1.530
  293SOL    HW2 2729   0.430   3.227   1.541
  294SOL     OW 2730   1.609   2.515   1.170
  294SOL    HW1 2731   1.642   2.431   1.130
  294SOL    HW2 2732   1.589   2.578   1.096
  295SOL     OW 2733   1.149   1.964   0.516
  295SOL    HW1 2734   1.217   1.947   0.446
  295SOL    HW2 2735   1.182   2.043   0.568
  296SOL     OW 2736   0.617   2.431   0.630
  296SOL    HW1 2737   0.674   2.425   0.549
  296SOL    HW2 2738   0.528   2.396   0.604
  297SOL     OW 2739   1.684   2.015   1.541
  297SOL    HW1 2740   1.641   2.057   1.462
  297SOL    HW2 2741   1.622   2.022   1.617
  298SOL     OW 2742   1.698   2.550   1.424
  298SOL    HW1 2743   1.643   2.620   1.468
  298SOL    HW2 2744   1.660   2.537   1.332
  299SOL     OW 2745   0.681   3.380   0.903
  299SOL    HW1 2746   0.687   3.438   0.982
  299SOL    HW2 2747   0.772   3.340   0.890
  300SOL     OW 2748   1.387   3.382   1.524
  300SOL    HW1 2749   1.302   3.406   1.568
  300SOL    HW2 2750   1.420   3.302   1.571
  301SOL     OW 2751   0.025   3.142   0.808
  301SOL    HW1 2752   0.052   3.092   0.727
  301SOL    HW2 2753   0.034   3.078   0.884
  302SOL     OW 2754   0.108   2.815   0.656
  302SOL    HW1 2755   0.156   2.830   0.741
  302SOL    HW2 2756   0.169   2.779   0.588
  303SOL     OW 2757   0.624   2.977   1.540
  303SOL    HW1 2758   0.615   2.926   1.625
  303SOL    HW2 2759   0.669   3.061   1.566
  304SOL     OW 2760   1.741   1.891   1.176
  304SOL    HW1 2761   1.784   1.806   1.202
  304SOL    HW2 2762   1.737   1.892   1.075
  305SOL     OW 2763   0.480   2.094   0.591
  305SOL    HW1 2764   0.499   2.102   0.494
  305SOL    HW2 2765   0.383   2.111   0.602
  306SOL     OW 2766   0.376   2.223   1.214
  306SOL    HW1 2767   0.432   2.167   1.277
  306SOL    HW2 2768   0.389   2.189   1.121
  307SOL     OW 2769   0.829   3.158   0.650
  307SOL    HW1 2770   0.855   3.189   0.560
  307SOL    HW2 2771   0.757   3.090   0.639
  308SOL     OW 2772   1.388   1.904   1.078
  308SOL    HW1 2773   1.447   1.854   1.140
  308SOL    HW2 2774   1.341   1.970   1.137
  309SOL     OW 2775   0.979   3.462   1.083
  309SOL    HW1 2776   0.932   3.380   1.055
  309SOL    HW2 2777   1.074   3.435   1.093
  310SOL     OW 2778   0.647   3.141   1.227
  310SOL    HW1 2779   0.643   3.232   1.269
  310SOL    HW2 2780   0.739   3.139   1.183
  311SOL     OW 2781   1.251   2.159   0.669
  311SOL    HW1 2782   1.283   2.253   0.677
  311SOL    HW2 2783   1.244   2.120   0.761
  312SOL     OW 2784   1.492   1.909   0.820
  312SOL    HW1 2785   1.449   1.911   0.910
  312SOL    HW2 2786   1.459   1.984   0.767
  313SOL     OW 2787   1.979   1.960   0.946
  313SOL    HW1 2788   2.001   1.935   1.041
  313SOL    HW2 2789   1.884   1.930   0.929
  314SOL     OW 2790   1.779   2.080   0.627
  314SOL    HW1 2791   1.710   2.113   0.689
  314SOL    HW2 2792   1.746   1.991   0.593
  315SOL     OW 2793   2.285   2.832   1.073
  315SOL    HW1 2794   2.197   2.877   1.058
  315SOL    HW2 2795   2.334   2.887   1.138
  316SOL     OW 2796   2.809   2.339   0.715
  316SOL    HW1 2797   2.850   2.413   0.662
  316SOL    HW2 2798   2.771   2.382   0.797
  317SOL     OW 2799   2.066   2.995   1.014
  317SOL    HW1 2800   1.980   2.969   0.971
  317SOL    HW2 2801   2.115   3.055   0.949
  318SOL     OW 2802   2.192   2.098   1.420
  318SOL    HW1 2803   2.260   2.025   1.412
  318SOL    HW2 2804   2.104   2.054   1.438
  319SOL     OW 2805   2.813   2.931   1.535
  319SOL    HW1 2806   2.863   2.923   1.621
  319SOL    HW2 2807   2.739   2.865   1.540
  320SOL     OW 2808   1.971   3.082   0.624
  320SOL    HW1 2809   1.994   3.111   0.533
  320SOL    HW2 2810   1.930   2.991   0.619
  321SOL     OW 2811   1.988   2.715   0.832
  321SOL    HW1 2812   2.015   2.624   0.866
  321SOL    HW2 2813   1.946   2.764   0.906
  322SOL     OW 2814   2.324   3.420   1.324
  322SOL    HW1 2815   2.313   3.345   1.389
  322SOL    HW2 2816   2.420   3.445   1.329
  323SOL     OW 2817   1.902   2.319   0.567
  323SOL    HW1 2818   1.863   2.227   0.568
  323SOL    HW2 2819   1.856   2.371   0.637
  324SOL     OW 2820   2.320   2.967   0.694
  324SOL    HW1 2821   2.296   2.873   0.711
  324SOL    HW2 2822   2.278   2.991   0.607
  325SOL     OW 2823   2.506   3.458   0.556
  325SOL    HW1 2824   2.531   3.500   0.469
  325SOL    HW2 2825   2.407   3.459   0.557
  326SOL     OW 2826   2.855   3.397   1.469
  326SOL    HW1 2827   2.900   3.375   1.385
  326SOL    HW2 2828   2.857   3.314   1.523
  327SOL     OW 2829   2.939   2.032   0.873
  327SOL    HW1 2830   2.861   1.988   0.919
  327SOL    HW2 2831   3.015   2.025   0.934
  328SOL     OW 2832   2.480   2.283   1.412
  328SOL    HW1 2833   2.445   2.245   1.496
  328SOL    HW2 2834   2.445   2.223   1.339
  329SOL     OW 2835   2.684   2.125   1.145
  329SOL    HW1 2836   2.615   2.127   1.216
  329SOL    HW2 2837   2.654   2.059   1.079
  330SOL     OW 2838   1.811   2.470   0.776
  330SOL    HW1 2839   1.898   2.450   0.820
  330SOL    HW2 2840   1.812   2.565   0.753
  331SOL     OW 2841   1.849   3.386   1.498
  331SOL    HW1 2842   1.820   3.411   1.590
  331SOL    HW2 2843   1.765   3.377   1.445
  332SOL     OW 2844   2.282   1.888   0.836
  332SOL    HW1 2845   2.280   1.917   0.932
  332SOL    HW2 2846   2.252   1.967   0.782
  333SOL     OW 2847   2.080   3.380   0.882
  333SOL    HW1 2848   2.115   3.287   0.867
  333SOL    HW2 2849   2.116   3.435   0.808
  334SOL     OW 2850   2.902   3.128   1.376
  334SOL    HW1 2851   2.894   3.060   1.449
  334SOL    HW2 2852   2.807   3.154   1.356
  335SOL     OW 2853   2.189   2.910   1.611
  335SOL    HW1 2854   2.157   2.893   1.517
  335SOL    HW2 2855   2.130   2.860   1.672
  336SOL     OW 2856   1.946   1.985   1.434
  336SOL    HW1 2857   1.864   2.040   1.426
  336SOL    HW2 2858   1.929   1.926   1.512
  337SOL     OW 2859   2.025   3.379   1.163
  337SOL    HW1 2860   2.061   3.290   1.191
  337SOL    HW2 2861   2.028   3.381   1.063
  338SOL     OW 2862   2.975   2.285   1.379
  338SOL    HW1 2863   2.998   2.196   1.416
  338SOL    HW2 2864   3.050   2.309   1.321
  339SOL     OW 2865   2.505   3.007   0.918
  339SOL    HW1 2866   2.595   2.990   0.879
  339SOL    HW2 2867   2.439   2.973   0.853
  340SOL     OW 2868   2.654   1.955   0.489
  340SOL    HW1 2869   2.589   1.985   0.420
  340SOL    HW2 2870   2.740   1.942   0.442
  341SOL     OW 2871   2.727   2.391   1.347
  341SOL    HW1 2872   2.644   2.340   1.371
  341SOL    HW2 2873   2.805   2.329   1.361
  342SOL     OW 2874   1.819   2.249   1.324
  342SOL    HW1 2875   1.917   2.247   1.297
  342SOL    HW2 2876   1.813   2.313   1.399
  343SOL     OW 2877   2.297   1.913   1.109
  343SOL    HW1 2878   2.337   1.840   1.161
  343SOL    HW2 2879   2.202   1.919   1.141
  344SOL     OW 2880   2.560   2.156   0.643
  344SOL    HW1 2881   2.512   2.220   0.586
  344SOL    HW2 2882   2.566   2.072   0.591
  345SOL     OW 2883   2.703   1.767   0.731
  345SOL    HW1 2884   2.625   1.761   0.667
  345SOL    HW2 2885   2.690   1.690   0.793
  346SOL     OW 2886   2.709   2.903   1.284
  346SOL    HW1 2887   2.623   2.938   1.319
  346SOL    HW2 2888   2.776   2.923   1.354
  347SOL     OW 2889   2.790   2.808   1.050
  347SOL    HW1 2890   2.736   2.845   1.126
  347SOL    HW2 2891   2.757   2.849   0.965
  348SOL     OW 2892   2.613   1.820   1.303
  348SOL    HW1 2893   2.657   1.741   1.265
  348SOL    HW2 2894   2.673   1.857   1.372
  349SOL     OW 2895   2.653   2.709   1.516
  349SOL    HW1 2896   2.562   2.728   1.550
  349SOL    HW2 2897   2.707   2.679   1.594
  350SOL     OW 2898   1.830   3.160   1.253
  350SOL    HW1 2899   1.793   3.241   1.211
  350SOL    HW2 2900   1.930   3.167   1.252
  351SOL     OW 2901   2.284   2.188   0.805
  351SOL    HW1 2902   2.274   2.252   0.730
  351SOL    HW2 2903   2.330   2.232   0.881
  352SOL     OW 2904   2.941   3.045   1.092
  352SOL    HW1 2905   2.971   3.046   1.186
  352SOL    HW2 2906   2.885   2.963   1.081
  353SOL     OW 2907   2.103   3.133   1.234
  353SOL    HW1 2908   2.090   3.075   1.152
  353SOL    HW2 2909   2.193   3.114   1.270
  354SOL     OW 2910   2.300   2.534   1.019
  354SOL    HW1 2911   2.298   2.633   1.010
  354SOL    HW2 2912   2.296   2.516   1.118
  355SOL     OW 2913   2.050   1.910   1.198
  355SOL    HW1 2914   2.010   1.944   1.283
  355SOL    HW2 2915   2.023   1.813   1.193
  356SOL     OW 2916   1.810   2.894   1.211
  356SOL    HW1 2917   1.813   2.845   1.297
  356SOL    HW2 2918   1.802   2.991   1.234
  357SOL     OW 2919   2.444   2.303   0.987
  357SOL    HW1 2920   2.484   2.305   0.897
  357SOL    HW2 2921   2.399   2.392   1.003
  358SOL     OW 2922   2.705   2.403   0.962
  358SOL    HW1 2923   2.756   2.441   1.037
  358SOL    HW2 2924   2.652   2.328   1.002
  359SOL     OW 2925   1.764   3.074   1.496
  359SOL    HW1 2926   1.775   3.124   1.410
  359SOL    HW2 2927   1.797   3.131   1.569
  360SOL     OW 2928   2.749   2.939   0.814
  360SOL    HW1 2929   2.734   2.855   0.760
  360SOL    HW2 2930   2.803   2.997   0.757
  361SOL     OW 2931   2.053   2.466   0.916
  361SOL    HW1 2932   2.147   2.488   0.943
  361SOL    HW2 2933   2.043   2.368   0.938
  362SOL     OW 2934   2.069   2.202   0.957
  362SOL    HW1 2935   2.028   2.110   0.955
  362SOL    HW2 2936   2.141   2.195   0.887
  363SOL     OW 2937   2.787   2.059   1.523
  363SOL    HW1 2938   2.738   2.111   1.591
  363SOL    HW2 2939   2.874   2.036   1.562
  364SOL     OW 2940   2.228   3.154   0.871
  364SOL    HW1 2941   2.308   3.200   0.909
  364SOL    HW2 2942   2.260   3.089   0.803
  365SOL     OW 2943   1.769   2.239   1.052
  365SOL    HW1 2944   1.850   2.216   1.002
  365SOL    HW2 2945   1.792   2.234   1.148
  366SOL     OW 2946   2.970   2.617   1.495
  366SOL    HW1 2947   2.999   2.625   1.590
  366SOL    HW2 2948   3.039   2.563   1.450
  367SOL     OW 2949   2.409   2.141   1.202
  367SOL    HW1 2950   2.361   2.057   1.174
  367SOL    HW2 2951   2.415   2.199   1.121
  368SOL     OW 2952   2.645   3.207   1.350
  368SOL    HW1 2953   2.558   3.178   1.314
  368SOL    HW2 2954   2.633   3.301   1.381
  369SOL     OW 2955   1.924   2.709   1.401
  369SOL    HW1 2956   1.907   2.645   1.475
  369SOL    HW2 2957   1.903   2.658   1.319
  370SOL     OW 2958   2.940   2.632   1.177
  370SOL    HW1 2959   3.026   2.623   1.132
  370SOL    HW2 2960   2.888   2.702   1.126
  371SOL     OW 2961   2.917   3.299   1.007
  371SOL    HW1 2962   3.007   3.323   1.038
  371SOL    HW2 2963   2.902   3.207   1.045
  372SOL     OW 2964   1.810   2.894   0.951
  372SOL    HW1 2965   1.808   2.891   1.052
  372SOL    HW2 2966   1.729   2.848   0.919
  373SOL     OW 2967   2.404   3.261   1.540
  373SOL    HW1 2968   2.349   3.303   1.612
  373SOL    HW2 2969   2.492   3.239   1.580
  374SOL     OW 2970   2.959   2.557   0.634
  374SOL    HW1 2971   3.042   2.507   0.654
  374SOL    HW2 2972   2.983   2.627   0.568
  375SOL     OW 2973   2.050   2.021   0.691
  375SOL    HW1 2974   1.968   2.050   0.645
  375SOL    HW2 2975   2.022   1.987   0.780
  376SOL     OW 2976   2.114   2.888   1.363
  376SOL    HW1 2977   2.072   2.970   1.327
  376SOL    HW2 2978   2.042   2.819   1.372
  377SOL     OW 2979   2.723   2.723   0.672
  377SOL    HW1 2980   2.647   2.672   0.714
  377SOL    HW2 2981   2.786   2.656   0.635
  378SOL     OW 2982   2.692   1.938   0.930
  378SOL    HW1 2983   2.686   1.878   0.849
  378SOL    HW2 2984   2.675   1.879   1.008
  379SOL     OW 2985   2.379   1.905   1.416
  379SOL    HW1 2986   2.463   1.877   1.371
  379SOL    HW2 2987   2.387   1.884   1.512
  380SOL     OW 2988   2.349   2.502   1.287
  380SOL    HW1 2989   2.339   2.569   1.358
  380SOL    HW2 2990   2.382   2.419   1.331
  381SOL     OW 2991   2.102   3.308   1.476
  381SOL    HW1 2992   2.004   3.325   1.492
  381SOL    HW2 2993   2.124   3.224   1.522
  382SOL     OW 2994   2.417   3.371   0.927
  382SOL    HW1 2995   2.351   3.444   0.921
  382SOL    HW2 2996   2.443   3.349   0.834
  383SOL     OW 2997   2.553   2.600   0.838
  383SOL    HW1 2998   2.603   2.526   0.883
  383SOL    HW2 2999   2.506   2.651   0.908
  384SOL     OW 3000   1.737   3.146   0.849
  384SOL    HW1 3001   1.768   3.154   0.756
  384SOL    HW2 3002   1.770   3.058   0.882
  385SOL     OW 3003   1.855   2.832   0.633
  385SOL    HW1 3004   1.908   2.791   0.708
  385SOL    HW2 3005   1.879   2.784   0.550
  386SOL     OW 3006   2.406   2.994   1.467
  386SOL    HW1 3007   2.341   2.945   1.525
  386SOL    HW2 3008   2.400   3.089   1.496
  387SOL     OW 3009   2.067   2.245   1.231
  387SOL    HW1 3010   2.128   2.195   1.293
  387SOL    HW2 3011   2.089   2.219   1.138
  388SOL     OW 3012   2.527   3.176   0.669
  388SOL    HW1 3013   2.530   3.197   0.572
  388SOL    HW2 3014   2.468   3.097   0.679
  389SOL     OW 3015   2.682   3.430   1.103
  389SOL    HW1 3016   2.605   3.393   1.053
  389SOL    HW2 3017   2.764   3.388   1.066
  390SOL     OW 3018   0.601   3.476   0.583
  390SOL    HW1 3019   0.516   3.435   0.616
  390SOL    HW2 3020   0.577   3.526   0.501
  391SOL     OW 3021   0.345   3.451   0.674
  391SOL    HW1 3022   0.333   3.546   0.642
  391SOL    HW2 3023   0.270   3.430   0.735
  392SOL     OW 3024   2.691   3.392   0.738
  392SOL    HW1 3025   2.634   3.426   0.662
  392SOL    HW2 3026   2.638   3.315   0.770
  393SOL     OW 3027   2.591   3.487   1.345
  393SOL    HW1 3028   2.632   3.466   1.255
  393SOL    HW2 3029   2.665   3.502   1.409
  394SOL     OW 3030   2.054   3.427   0.602
  394SOL    HW1 3031   2.027   3.522   0.594
  394SOL    HW2 3032   1.996   3.383   0.667
  395SOL     OW 3033   0.081   0.319   2.695
  395SOL    HW1 3034   3.093   0.372   2.716
  395SOL    HW2 3035   0.061   0.270   2.613
  396SOL     OW 3036   0.587   1.187   3.210
  396SOL    HW1 3037   0.500   1.200   3.165
  396SOL    HW2 3038   0.614   1.279   3.240
  397SOL     OW 3039   1.675   0.602   2.918
  397SOL    HW1 3040   1.738   0.668   2.876
  397SOL    HW2 3041   1.729   0.539   2.969
  398SOL     OW 3042   1.072   0.643   2.777
  398SOL    HW1 3043   1.121   0.709   2.721
  398SOL    HW2 3044   1.055   0.690   2.864
  399SOL     OW 3045   0.764   1.043   3.070
  399SOL    HW1 3046   0.696   1.082   3.133
  399SOL    HW2 3047   0.788   1.121   3.012
  400SOL     OW 3048   0.716   0.938   2.767
  400SOL    HW1 3049   0.755   0.940   2.857
  400SOL    HW2 3050   0.645   1.007   2.764
  401SOL     OW 3051   0.369   1.306   3.094
  401SOL    HW1 3052   0.279   1.299   3.055
  401SOL    HW2 3053   0.425   1.362   3.031
  402SOL     OW 3054   1.367   1.439   3.341
  402SOL    HW1 3055   1.440   1.484   3.391
  402SOL    HW2 3056   1.342   1.360   3.398
  403SOL     OW 3057   0.517   0.354   3.465
  403SOL    HW1 3058   0.573   0.343   3.545
  403SOL    HW2 3059   0.423   0.331   3.492
  404SOL     OW 3060   1.519   0.426   2.783
  404SOL    HW1 3061   1.465   0.463   2.709
  404SOL    HW2 3062   1.573   0.501   2.822
  405SOL     OW 3063   1.149   1.216   3.614
  405SOL    HW1 3064   1.162   1.263   3.700
  405SOL    HW2 3065   1.063   1.168   3.623
  406SOL     OW 3066   0.279   1.032   2.952
  406SOL    HW1 3067   0.304   0.937   2.967
  406SOL    HW2 3068   0.239   1.065   3.035
  407SOL     OW 3069   0.625   1.698   3.375
  407SOL    HW1 3070   0.573   1.699   3.460
  407SOL    HW2 3071   0.715   1.735   3.398
  408SOL     OW 3072   0.236   0.569   2.686
  408SOL    HW1 3073   0.165   0.519   2.639
  408SOL    HW2 3074   0.195   0.653   2.719
  409SOL     OW 3075   1.616   0.871   2.683
  409SOL    HW1 3076   1.699   0.817   2.690
  409SOL    HW2 3077   1.608   0.898   2.588
  410SOL     OW 3078   0.182   0.732   3.563
  410SOL    HW1 3079   0.281   0.718   3.564
  410SOL    HW2 3080   0.161   0.771   3.652
  411SOL     OW 3081   1.321   1.189   3.420
  411SOL    HW1 3082   1.301   1.104   3.372
  411SOL    HW2 3083   1.260   1.193   3.500
  412SOL     OW 3084   0.245   0.862   3.260
  412SOL    HW1 3085   0.340   0.839   3.270
  412SOL    HW2 3086   0.217   0.823   3.174
  413SOL     OW 3087   1.107   1.644   3.531
  413SOL    HW1 3088   1.161   1.726   3.520
  413SOL    HW2 3089   1.159   1.578   3.582
  414SOL     OW 3090   1.596   1.584   2.690
  414SOL    HW1 3091   1.629   1.623   2.606
  414SOL    HW2 3092   1.521   1.522   2.668
  415SOL     OW 3093   1.260   0.327   2.999
  415SOL    HW1 3094   1.162   0.314   2.986
  415SOL    HW2 3095   1.286   0.278   3.082
  416SOL     OW 3096   0.818   0.529   3.436
  416SOL    HW1 3097   0.835   0.589   3.514
  416SOL    HW2 3098   0.722   0.537   3.414
  417SOL     OW 3099   0.938   0.798   3.563
  417SOL    HW1 3100   1.030   0.770   3.544
  417SOL    HW2 3101   0.904   0.852   3.487
  418SOL     OW 3102   0.989   0.379   3.278
  418SOL    HW1 3103   0.936   0.440   3.338
  418SOL    HW2 3104   0.960   0.397   3.186
  419SOL     OW 3105   0.142   0.783   2.824
  419SOL    HW1 3106   0.220   0.768   2.884
  419SOL    HW2 3107   0.093   0.861   2.860
  420SOL     OW 3108   0.185   1.657   3.564
  420SOL    HW1 3109   0.185   1.681   3.660
  420SOL    HW2 3110   0.173   1.740   3.511
  421SOL     OW 3111   1.308   1.110   2.648
  421SOL    HW1 3112   1.391   1.103   2.594
  421SOL    HW2 3113   1.239   1.151   2.590
  422SOL     OW 3114   0.609   0.209   2.918
  422SOL    HW1 3115   0.610   0.205   3.019
  422SOL    HW2 3116   0.541   0.276   2.894
  423SOL     OW 3117   0.395   1.676   2.920
  423SOL    HW1 3118   0.451   1.594   2.917
  423SOL    HW2 3119   0.459   1.754   2.921
  424SOL     OW 3120   1.709   0.987   2.913
  424SOL    HW1 3121   1.655   0.967   2.831
  424SOL    HW2 3122   1.645   0.990   2.989
  425SOL     OW 3123   1.416   0.698   2.786
  425SOL    HW1 3124   1.427   0.651   2.873
  425SOL    HW2 3125   1.501   0.744   2.764
  426SOL     OW 3126   0.256   0.272   3.505
  426SOL    HW1 3127   0.205   0.355   3.479
  426SOL    HW2 3128   0.226   0.246   3.596
  427SOL     OW 3129   0.311   1.693   3.233
  427SOL    HW1 3130   0.359   1.628   3.290
  427SOL    HW2 3131   0.288   1.646   3.149
  428SOL     OW 3132   0.931   1.568   2.949
  428SOL    HW1 3133   1.000   1.509   2.988
  428SOL    HW2 3134   0.888   1.518   2.873
  429SOL     OW 3135   1.324   0.517   3.445
  429SOL    HW1 3136   1.359   0.542   3.535
  429SOL    HW2 3137   1.321   0.604   3.395
  430SOL     OW 3138   0.796   1.282   2.946
  430SOL    HW1 3139   0.896   1.284   2.946
  430SOL    HW2 3140   0.772   1.309   2.853
  431SOL     OW 3141   0.897   0.487   2.935
  431SOL    HW1 3142   0.948   0.528   2.860
  431SOL    HW2 3143   0.945   0.404   2.963
  432SOL     OW 3144   0.610   0.166   2.630
  432SOL    HW1 3145   0.517   0.134   2.652
  432SOL    HW2 3146   0.609   0.185   2.533
  433SOL     OW 3147   0.487   1.095   2.779
  433SOL    HW1 3148   0.414   1.077   2.845
  433SOL    HW2 3149   0.463   1.053   2.694
  434SOL     OW 3150   1.248   1.678   2.682
  434SOL    HW1 3151   1.265   1.742   2.608
  434SOL    HW2 3152   1.166   1.713   2.729
  435SOL     OW 3153   0.169   0.510   3.413
  435SOL    HW1 3154   0.256   0.525   3.364
  435SOL    HW2 3155   0.162   0.589   3.475
  436SOL     OW 3156   0.606   0.198   3.183
  436SOL    HW1 3157   0.655   0.201   3.268
  436SOL    HW2 3158   0.509   0.214   3.207
  437SOL     OW 3159   0.945   0.074   2.812
  437SOL    HW1 3160   0.957   0.057   2.715
  437SOL    HW2 3161   0.978   3.580   2.858
  438SOL     OW 3162   1.368   1.112   2.924
  438SOL    HW1 3163   1.317   1.027   2.925
  438SOL    HW2 3164   1.409   1.117   2.833
  439SOL     OW 3165   1.391   0.572   3.035
  439SOL    HW1 3166   1.352   0.482   3.017
  439SOL    HW2 3167   1.470   0.558   3.095
  440SOL     OW 3168   1.577   1.206   2.736
  440SOL    HW1 3169   1.671   1.177   2.723
  440SOL    HW2 3170   1.563   1.282   2.676
  441SOL     OW 3171   1.673   1.157   3.546
  441SOL    HW1 3172   1.760   1.135   3.587
  441SOL    HW2 3173   1.623   1.214   3.610
  442SOL     OW 3174   1.534   1.436   3.581
  442SOL    HW1 3175   1.570   1.506   3.519
  442SOL    HW2 3176   1.554   1.466   3.673
  443SOL     OW 3177   1.073   1.144   3.154
  443SOL    HW1 3178   0.994   1.153   3.213
  443SOL    HW2 3179   1.045   1.158   3.060
  444SOL     OW 3180   1.548   1.034   3.114
  444SOL    HW1 3181   1.554   1.103   3.187
  444SOL    HW2 3182   1.470   1.060   3.058
  445SOL     OW 3183   0.885   0.146   3.412
  445SOL    HW1 3184   0.902   0.142   3.315
  445SOL    HW2 3185   0.944   0.217   3.447
  446SOL     OW 3186   0.125   1.475   3.319
  446SOL    HW1 3187   0.121   1.572   3.298
  446SOL    HW2 3188   0.221   1.457   3.341
  447SOL     OW 3189   0.612   0.506   2.912
  447SOL    HW1 3190   0.600   0.573   2.837
  447SOL    HW2 3191   0.699   0.527   2.954
  448SOL     OW 3192   1.260   1.344   3.117
  448SOL    HW1 3193   1.300   1.368   3.206
  448SOL    HW2 3194   1.200   1.266   3.134
  449SOL     OW 3195   0.385   1.424   3.336
  449SOL    HW1 3196   0.377   1.369   3.253
  449SOL    HW2 3197   0.481   1.420   3.362
  450SOL     OW 3198   0.504   0.640   3.543
  450SOL    HW1 3199   0.540   0.731   3.529
  450SOL    HW2 3200   0.544   0.603   3.625
  451SOL     OW 3201   1.473   0.726   3.596
  451SOL    HW1 3202   1.421   0.770   3.669
  451SOL    HW2 3203   1.563   0.769   3.595
  452SOL     OW 3204   0.603   0.826   3.076
  452SOL    HW1 3205   0.668   0.898   3.053
  452SOL    HW2 3206   0.610   0.812   3.172
  453SOL     OW 3207   1.295   0.826   3.036
  453SOL    HW1 3208   1.214   0.808   2.981
  453SOL    HW2 3209   1.339   0.737   3.048
  454SOL     OW 3210   0.344   0.203   3.251
  454SOL    HW1 3211   0.317   0.237   3.341
  454SOL    HW2 3212   0.277   0.136   3.225
  455SOL     OW 3213   0.124   1.206   3.263
  455SOL    HW1 3214   0.150   1.167   3.351
  455SOL    HW2 3215   0.110   1.303   3.278
  456SOL     OW 3216   0.351   0.112   2.713
  456SOL    HW1 3217   0.339   0.211   2.704
  456SOL    HW2 3218   0.310   0.090   2.800
  457SOL     OW 3219   1.010   0.731   3.023
  457SOL    HW1 3220   1.027   0.753   3.118
  457SOL    HW2 3221   0.952   0.650   3.020
  458SOL     OW 3222   0.029   1.381   3.556
  458SOL    HW1 3223   0.074   1.428   3.481
  458SOL    HW2 3224   0.072   1.414   3.639
  459SOL     OW 3225   0.438   0.867   3.666
  459SOL    HW1 3226   0.480   0.917   3.741
  459SOL    HW2 3227   0.449   0.771   3.687
  460SOL     OW 3228   1.057   1.258   2.888
  460SOL    HW1 3229   1.039   1.165   2.853
  460SOL    HW2 3230   1.102   1.304   2.814
  461SOL     OW 3231   0.351   0.770   3.001
  461SOL    HW1 3232   0.448   0.793   3.010
  461SOL    HW2 3233   0.348   0.671   3.014
  462SOL     OW 3234   0.377   0.499   3.036
  462SOL    HW1 3235   0.337   0.431   2.974
  462SOL    HW2 3236   0.470   0.509   2.999
  463SOL     OW 3237   1.150   0.247   3.486
  463SOL    HW1 3238   1.133   0.318   3.553
  463SOL    HW2 3239   1.140   0.293   3.398
  464SOL     OW 3240   0.140   1.633   2.985
  464SOL    HW1 3241   0.090   1.640   2.901
  464SOL    HW2 3242   0.235   1.657   2.963
  465SOL     OW 3243   0.545   1.441   2.943
  465SOL    HW1 3244   0.599   1.520   2.977
  465SOL    HW2 3245   0.607   1.364   2.943
  466SOL     OW 3246   0.103   0.568   3.139
  466SOL    HW1 3247   0.185   0.535   3.095
  466SOL    HW2 3248   0.101   0.530   3.230
  467SOL     OW 3249   1.584   0.541   3.231
  467SOL    HW1 3250   1.531   0.532   3.314
  467SOL    HW2 3251   1.679   0.528   3.258
  468SOL     OW 3252   0.216   1.051   3.483
  468SOL    HW1 3253   0.263   1.056   3.570
  468SOL    HW2 3254   0.284   1.025   3.415
  469SOL     OW 3255   1.273   0.992   3.242
  469SOL    HW1 3256   1.295   0.930   3.165
  469SOL    HW2 3257   1.196   1.047   3.209
  470SOL     OW 3258   1.659   1.608   3.145
  470SOL    HW1 3259   1.734   1.640   3.088
  470SOL    HW2 3260   1.644   1.514   3.116
  471SOL     OW 3261   1.215   1.616   3.121
  471SOL    HW1 3262   1.297   1.655   3.160
  471SOL    HW2 3263   1.213   1.521   3.148
  472SOL     OW 3264   0.727   1.542   3.592
  472SOL    HW1 3265   0.676   1.613   3.637
  472SOL    HW2 3266   0.822   1.570   3.589
  473SOL     OW 3267   1.710   0.195   2.668
  473SOL    HW1 3268   1.687   0.241   2.583
  473SOL    HW2 3269   1.665   0.106   2.666
  474SOL     OW 3270   1.360   1.433   2.654
  474SOL    HW1 3271   1.373   1.406   2.559
  474SOL    HW2 3272   1.311   1.521   2.651
  475SOL     OW 3273   1.225   0.869   2.732
  475SOL    HW1 3274   1.299   0.802   2.747
  475SOL    HW2 3275   1.267   0.948   2.688
  476SOL     OW 3276   0.832   1.186   3.401
  476SOL    HW1 3277   0.819   1.215   3.495
  476SOL    HW2 3278   0.748   1.211   3.357
  477SOL     OW 3279   1.603   1.613   3.403
  477SOL    HW1 3280   1.623   1.612   3.304
  477SOL    HW2 3281   1.564   1.703   3.425
  478SOL     OW 3282   1.749   0.137   2.989
  478SOL    HW1 3283   1.754   0.064   2.922
  478SOL    HW2 3284   1.659   0.178   2.969
  479SOL     OW 3285   0.315   0.352   2.830
  479SOL    HW1 3286   0.309   0.433   2.769
  479SOL    HW2 3287   0.221   0.317   2.829
  480SOL     OW 3288   0.830   0.922   3.344
  480SOL    HW1 3289   0.843   0.937   3.248
  480SOL    HW2 3290   0.826   1.014   3.385
  481SOL     OW 3291   1.569   1.221   3.305
  481SOL    HW1 3292   1.603   1.192   3.395
  481SOL    HW2 3293   1.474   1.244   3.323
  482SOL     OW 3294   1.010   1.019   2.791
  482SOL    HW1 3295   0.932   0.965   2.763
  482SOL    HW2 3296   1.091   0.966   2.761
  483SOL     OW 3297   0.999   0.247   3.006
  483SOL    HW1 3298   0.986   0.183   2.930
  483SOL    HW2 3299   1.010   0.193   3.088
  484SOL     OW 3300   1.362   0.765   3.348
  484SOL    HW1 3301   1.327   0.855   3.324
  484SOL    HW2 3302   1.425   0.777   3.425
  485SOL     OW 3303   1.649   0.819   3.247
  485SOL    HW1 3304   1.600   0.735   3.226
  485SOL    HW2 3305   1.602   0.893   3.197
  486SOL     OW 3306   0.597   0.689   2.723
  486SOL    HW1 3307   0.649   0.775   2.722
  486SOL    HW2 3308   0.541   0.689   2.642
  487SOL     OW 3309   1.679   0.881   3.510
  487SOL    HW1 3310   1.659   0.978   3.522
  487SOL    HW2 3311   1.671   0.861   3.412
  488SOL     OW 3312   0.683   1.656   3.009
  488SOL    HW1 3313   0.654   1.744   2.972
  488SOL    HW2 3314   0.778   1.641   2.983
  489SOL     OW 3315   0.671   1.277   3.607
  489SOL    HW1 3316   0.608   1.260   3.681
  489SOL    HW2 3317   0.689   1.375   3.606
  490SOL     OW 3318   1.672   0.172   3.253
  490SOL    HW1 3319   1.747   0.140   3.308
  490SOL    HW2 3320   1.701   0.171   3.158
  491SOL     OW 3321   0.396   0.550   3.294
  491SOL    HW1 3322   0.458   0.496   3.351
  491SOL    HW2 3323   0.403   0.517   3.199
  492SOL     OW 3324   0.809   1.460   2.725
  492SOL    HW1 3325   0.859   1.484   2.643
  492SOL    HW2 3326   0.714   1.468   2.701
  493SOL     OW 3327   1.364   0.214   3.217
  493SOL    HW1 3328   1.456   0.184   3.195
  493SOL    HW2 3329   1.372   0.301   3.263
  494SOL     OW 3330   0.985   1.758   3.168
  494SOL    HW1 3331   0.932   1.701   3.107
  494SOL    HW2 3332   1.078   1.721   3.164
  495SOL     OW 3333   0.662   1.437   3.283
  495SOL    HW1 3334   0.647   1.527   3.325
  495SOL    HW2 3335   0.749   1.445   3.237
  496SOL     OW 3336   1.215   0.409   2.733
  496SOL    HW1 3337   1.180   0.502   2.729
  496SOL    HW2 3338   1.269   0.400   2.814
  497SOL     OW 3339   1.506   0.214   2.937
  497SOL    HW1 3340   1.409   0.229   2.952
  497SOL    HW2 3341   1.528   0.282   2.866
  498SOL     OW 3342   1.989   0.226   3.039
  498SOL    HW1 3343   1.995   0.255   3.134
  498SOL    HW2 3344   1.892   0.203   3.022
  499SOL     OW 3345   2.814   0.672   2.750
  499SOL    HW1 3346   2.860   0.750   2.712
  499SOL    HW2 3347   2.773   0.700   2.837
  500SOL     OW 3348   2.175   0.354   3.417
  500SOL    HW1 3349   2.247   0.310   3.471
  500SOL    HW2 3350   2.093   0.338   3.470
  501SOL     OW 3351   1.939   1.395   2.684
  501SOL    HW1 3352   1.978   1.407   2.594
  501SOL    HW2 3353   1.915   1.299   2.693
  502SOL     OW 3354   2.010   1.030   2.958
  502SOL    HW1 3355   1.994   0.938   2.993
  502SOL    HW2 3356   1.946   1.092   3.002
  503SOL     OW 3357   2.323   1.686   3.445
  503SOL    HW1 3358   2.299   1.684   3.541
  503SOL    HW2 3359   2.409   1.735   3.438
  504SOL     OW 3360   2.322   1.293   2.806
  504SOL    HW1 3361   2.289   1.198   2.815
  504SOL    HW2 3362   2.300   1.320   2.711
  505SOL     OW 3363   2.961   1.171   3.452
  505SOL    HW1 3364   3.005   1.097   3.402
  505SOL    HW2 3365   3.023   1.199   3.524
  506SOL     OW 3366   1.915   0.926   3.253
  506SOL    HW1 3367   2.000   0.873   3.248
  506SOL    HW2 3368   1.838   0.865   3.239
  507SOL     OW 3369   2.909   1.648   3.546
  507SOL    HW1 3370   2.925   1.741   3.519
  507SOL    HW2 3371   2.888   1.648   3.643
  508SOL     OW 3372   2.944   0.326   2.992
  508SOL    HW1 3373   2.853   0.288   3.000
  508SOL    HW2 3374   2.978   0.337   3.085
  509SOL     OW 3375   2.487   0.562   3.482
  509SOL    HW1 3376   2.457   0.523   3.567
  509SOL    HW2 3377   2.445   0.510   3.407
  510SOL     OW 3378   2.688   0.894   3.555
  510SOL    HW1 3379   2.707   0.796   3.548
  510SOL    HW2 3380   2.600   0.909   3.515
  511SOL     OW 3381   2.682   0.419   3.242
  511SOL    HW1 3382   2.595   0.430   3.288
  511SOL    HW2 3383   2.661   0.360   3.165
  512SOL     OW 3384   1.846   0.779   2.813
  512SOL    HW1 3385   1.935   0.766   2.857
  512SOL    HW2 3386   1.807   0.862   2.854
  513SOL     OW 3387   2.274   0.217   2.940
  513SOL    HW1 3388   2.308   0.221   3.033
  513SOL    HW2 3389   2.304   0.301   2.896
  514SOL     OW 3390   2.121   1.649   2.916
  514SOL    HW1 3391   2.152   1.559   2.888
  514SOL    HW2 3392   2.195   1.712   2.900
  515SOL     OW 3393   2.214   1.212   3.660
  515SOL    HW1 3394   2.171   1.188   3.574
  515SOL    HW2 3395   2.182   1.148   3.729
  516SOL     OW 3396   1.922   0.264   3.502
  516SOL    HW1 3397   1.869   0.340   3.466
  516SOL    HW2 3398   1.907   0.263   3.599
  517SOL     OW 3399   2.024   1.619   3.262
  517SOL    HW1 3400   2.111   1.573   3.251
  517SOL    HW2 3401   1.971   1.600   3.181
  518SOL     OW 3402   2.644   1.570   2.955
  518SOL    HW1 3403   2.716   1.502   2.951
  518SOL    HW2 3404   2.577   1.539   2.887
  519SOL     OW 3405   2.553   1.418   3.218
  519SOL    HW1 3406   2.529   1.379   3.128
  519SOL    HW2 3407   2.632   1.365   3.249
  520SOL     OW 3408   2.989   0.540   3.468
  520SOL    HW1 3409   3.059   0.508   3.530
  520SOL    HW2 3410   3.002   0.637   3.458
  521SOL     OW 3411   2.500   1.285   3.001
  521SOL    HW1 3412   2.588   1.263   2.957
  521SOL    HW2 3413   2.431   1.287   2.928
  522SOL     OW 3414   2.594   0.486   2.958
  522SOL    HW1 3415   2.571   0.475   2.860
  522SOL    HW2 3416   2.639   0.401   2.982
  523SOL     OW 3417   2.184   0.102   2.658
  523SOL    HW1 3418   2.143   0.071   2.573
  523SOL    HW2 3419   2.268   0.147   2.632
  524SOL     OW 3420   2.745   0.644   3.475
  524SOL    HW1 3421   2.660   0.592   3.483
  524SOL    HW2 3422   2.821   0.580   3.476
  525SOL     OW 3423   2.899   1.462   2.864
  525SOL    HW1 3424   2.901   1.529   2.789
  525SOL    HW2 3425   2.988   1.466   2.905
  526SOL     OW 3426   2.232   1.040   2.822
  526SOL    HW1 3427   2.151   1.042   2.882
  526SOL    HW2 3428   2.194   1.020   2.731
  527SOL     OW 3429   2.936   1.668   2.694
  527SOL    HW1 3430   2.963   1.689   2.602
  527SOL    HW2 3431   2.863   1.730   2.719
  528SOL     OW 3432   1.814   0.516   3.409
  528SOL    HW1 3433   1.902   0.536   3.364
  528SOL    HW2 3434   1.798   0.590   3.473
  529SOL     OW 3435   2.544   0.428   2.702
  529SOL    HW1 3436   2.518   0.510   2.654
  529SOL    HW2 3437   2.599   0.375   2.640
  530SOL     OW 3438   2.751   1.268   3.333
  530SOL    HW1 3439   2.666   1.233   3.373
  530SOL    HW2 3440   2.826   1.215   3.376
  531SOL     OW 3441   2.590   0.171   3.368
  531SOL    HW1 3442   2.599   0.082   3.327
  531SOL    HW2 3443   2.679   0.193   3.410
  532SOL     OW 3444   2.147   0.787   3.268
  532SOL    HW1 3445   2.211   0.796   3.345
  532SOL    HW2 3446   2.101   0.699   3.284
  533SOL     OW 3447   2.938   0.359   3.270
  533SOL    HW1 3448   2.977   0.431   3.328
  533SOL    HW2 3449   2.843   0.387   3.254
  534SOL     OW 3450   2.090   0.997   2.599
  534SOL    HW1 3451   2.086   1.075   2.538
  534SOL    HW2 3452   2.098   0.918   2.542
  535SOL     OW 3453   2.307   0.515   2.913
  535SOL    HW1 3454   2.299   0.568   2.827
  535SOL    HW2 3455   2.384   0.558   2.958
  536SOL     OW 3456   2.094   0.697   3.561
  536SOL    HW1 3457   2.181   0.742   3.539
  536SOL    HW2 3458   2.098   0.667   3.655
  537SOL     OW 3459   2.313   0.805   3.058
  537SOL    HW1 3460   2.317   0.895   3.019
  537SOL    HW2 3461   2.256   0.809   3.140
  538SOL     OW 3462   3.017   0.785   3.064
  538SOL    HW1 3463   2.934   0.768   3.014
  538SOL    HW2 3464   3.070   0.700   3.065
  539SOL     OW 3465   1.840   1.261   3.306
  539SOL    HW1 3466   1.845   1.181   3.364
  539SOL    HW2 3467   1.746   1.292   3.310
  540SOL     OW 3468   2.718   0.721   2.994
  540SOL    HW1 3469   2.715   0.743   3.093
  540SOL    HW2 3470   2.674   0.631   2.986
  541SOL     OW 3471   2.742   1.240   2.900
  541SOL    HW1 3472   2.756   1.159   2.842
  541SOL    HW2 3473   2.805   1.311   2.869
  542SOL     OW 3474   2.055   0.752   2.976
  542SOL    HW1 3475   2.152   0.775   2.980
  542SOL    HW2 3476   2.047   0.659   3.009
  543SOL     OW 3477   2.074   0.486   3.030
  543SOL    HW1 3478   2.037   0.399   3.001
  543SOL    HW2 3479   2.161   0.498   2.979
  544SOL     OW 3480   2.258   0.384   3.689
  544SOL    HW1 3481   2.187   0.355   3.751
  544SOL    HW2 3482   2.290   0.471   3.722
  545SOL     OW 3483   2.829   0.214   3.478
  545SOL    HW1 3484   2.855   0.254   3.564
  545SOL    HW2 3485   2.883   0.258   3.406
  546SOL     OW 3486   1.862   1.660   2.976
  546SOL    HW1 3487   1.821   1.577   2.937
  546SOL    HW2 3488   1.960   1.657   2.952
  547SOL     OW 3489   2.675   0.766   3.248
  547SOL    HW1 3490   2.722   0.729   3.329
  547SOL    HW2 3491   2.582   0.734   3.253
  548SOL     OW 3492   3.015   0.898   3.596
  548SOL    HW1 3493   3.043   0.934   3.684
  548SOL    HW2 3494   2.916   0.902   3.597
  549SOL     OW 3495   2.398   0.438   3.259
  549SOL    HW1 3496   2.317   0.389   3.291
  549SOL    HW2 3497   2.375   0.484   3.175
  550SOL     OW 3498   2.650   1.535   3.443
  550SOL    HW1 3499   2.591   1.502   3.370
  550SOL    HW2 3500   2.620   1.627   3.465
  551SOL     OW 3501   1.935   1.040   3.492
  551SOL    HW1 3502   1.919   0.970   3.560
  551SOL    HW2 3503   1.925   0.992   3.403
  552SOL     OW 3504   3.002   0.957   3.267
  552SOL    HW1 3505   3.012   0.896   3.187
  552SOL    HW2 3506   2.926   1.016   3.243
  553SOL     OW 3507   2.908   1.573   3.189
  553SOL    HW1 3508   2.985   1.619   3.147
  553SOL    HW2 3509   2.883   1.497   3.131
  554SOL     OW 3510   1.821   1.209   3.039
  554SOL    HW1 3511   1.829   1.218   3.138
  554SOL    HW2 3512   1.761   1.132   3.019
  555SOL     OW 3513   2.508   1.203   3.424
  555SOL    HW1 3514   2.493   1.257   3.507
  555SOL    HW2 3515   2.438   1.234   3.362
  556SOL     OW 3516   2.502   0.952   3.346
  556SOL    HW1 3517   2.584   0.929   3.295
  556SOL    HW2 3518   2.512   1.048   3.377
  557SOL     OW 3519   2.097   1.240   3.427
  557SOL    HW1 3520   2.112   1.248   3.329
  557SOL    HW2 3521   2.035   1.162   3.441
  558SOL     OW 3522   2.753   1.013   2.749
  558SOL    HW1 3523   2.671   0.978   2.795
  558SOL    HW2 3524   2.751   0.982   2.656
  559SOL     OW 3525   2.686   0.226   3.009
  559SOL    HW1 3526   2.674   0.197   2.915
  559SOL    HW2 3527   2.691   0.144   3.064
  560SOL     OW 3528   2.306   1.381   2.561
  560SOL    HW1 3529   2.359   1.333   2.493
  560SOL    HW2 3530   2.263   1.459   2.516
  561SOL     OW 3531   2.361   0.179   3.508
  561SOL    HW1 3532   2.450   0.181   3.461
  561SOL    HW2 3533   2.374   0.208   3.601
  562SOL     OW 3534   2.334   0.785   3.458
  562SOL    HW1 3535   2.390   0.860   3.420
  562SOL    HW2 3536   2.396   0.709   3.472
  563SOL     OW 3537   2.307   0.694   2.713
  563SOL    HW1 3538   2.353   0.780   2.730
  563SOL    HW2 3539   2.240   0.709   2.642
  564SOL     OW 3540   2.550   0.913   2.891
  564SOL    HW1 3541   2.600   0.839   2.935
  564SOL    HW2 3542   2.513   0.972   2.961
  565SOL     OW 3543   1.737   1.431   2.915
  565SOL    HW1 3544   1.758   1.430   2.818
  565SOL    HW2 3545   1.772   1.346   2.954
  566SOL     OW 3546   1.852   1.135   2.709
  566SOL    HW1 3547   1.849   1.097   2.801
  566SOL    HW2 3548   1.919   1.080   2.660
  567SOL     OW 3549   2.389   1.386   3.586
  567SOL    HW1 3550   2.330   1.310   3.618
  567SOL    HW2 3551   2.416   1.434   3.667
  568SOL     OW 3552   2.046   0.543   3.286
  568SOL    HW1 3553   2.103   0.482   3.342
  568SOL    HW2 3554   2.060   0.518   3.190
  569SOL     OW 3555   2.511   1.491   2.740
  569SOL    HW1 3556   2.533   1.475   2.645
  569SOL    HW2 3557   2.440   1.425   2.762
  570SOL     OW 3558   2.680   1.734   3.175
  570SOL    HW1 3559   2.639   1.669   3.111
  570SOL    HW2 3560   2.768   1.692   3.198
  571SOL     OW 3561   2.285   1.470   3.284
  571SOL    HW1 3562   2.307   1.543   3.349
  571SOL    HW2 3563   2.373   1.440   3.248
  572SOL     OW 3564   2.950   0.441   2.749
  572SOL    HW1 3565   2.895   0.525   2.744
  572SOL    HW2 3566   2.946   0.407   2.843
  573SOL     OW 3567   0.250   1.938   3.058
  573SOL    HW1 3568   0.282   1.878   3.131
  573SOL    HW2 3569   0.160   1.906   3.034
  574SOL     OW 3570   0.058   2.063   2.710
  574SOL    HW1 3571   3.077   2.068   2.772
  574SOL    HW2 3572   0.034   2.002   2.636
  575SOL     OW 3573   0.584   2.885   3.214
  575SOL    HW1 3574   0.500   2.888   3.161
  575SOL    HW2 3575   0.602   2.979   3.240
  576SOL     OW 3576   1.497   3.048   2.784
  576SOL    HW1 3577   1.456   3.050   2.875
  576SOL    HW2 3578   1.424   3.066   2.716
  577SOL     OW 3579   1.671   2.236   2.892
  577SOL    HW1 3580   1.724   2.312   2.853
  577SOL    HW2 3581   1.711   2.223   2.983
  578SOL     OW 3582   1.135   2.331   2.765
  578SOL    HW1 3583   1.120   2.385   2.684
  578SOL    HW2 3584   1.083   2.372   2.839
  579SOL     OW 3585   0.793   2.755   3.091
  579SOL    HW1 3586   0.711   2.777   3.143
  579SOL    HW2 3587   0.823   2.842   3.053
  580SOL     OW 3588   0.684   2.713   2.757
  580SOL    HW1 3589   0.746   2.645   2.795
  580SOL    HW2 3590   0.606   2.664   2.719
  581SOL     OW 3591   0.375   3.012   3.086
  581SOL    HW1 3592   0.293   2.991   3.034
  581SOL    HW2 3593   0.435   3.066   3.026
  582SOL     OW 3594   0.496   2.070   3.498
  582SOL    HW1 3595   0.569   2.006   3.513
  582SOL    HW2 3596   0.411   2.019   3.501
  583SOL     OW 3597   0.295   3.209   2.576
  583SOL    HW1 3598   0.275   3.299   2.615
  583SOL    HW2 3599   0.294   3.220   2.478
  584SOL     OW 3600   0.326   3.000   2.723
  584SOL    HW1 3601   0.318   3.078   2.659
  584SOL    HW2 3602   0.248   2.941   2.704
  585SOL     OW 3603   0.263   2.685   2.944
  585SOL    HW1 3604   0.349   2.639   2.962
  585SOL    HW2 3605   0.266   2.773   2.989
  586SOL     OW 3606   1.506   1.852   3.466
  586SOL    HW1 3607   1.544   1.935   3.430
  586SOL    HW2 3608   1.494   1.862   3.563
  587SOL     OW 3609   0.216   2.286   2.654
  587SOL    HW1 3610   0.156   2.208   2.645
  587SOL    HW2 3611   0.164   2.359   2.696
  588SOL     OW 3612   0.176   2.424   3.554
  588SOL    HW1 3613   0.276   2.407   3.563
  588SOL    HW2 3614   0.159   2.508   3.602
  589SOL     OW 3615   0.629   2.970   2.762
  589SOL    HW1 3616   0.650   2.871   2.761
  589SOL    HW2 3617   0.555   2.979   2.696
  590SOL     OW 3618   0.839   3.463   2.641
  590SOL    HW1 3619   0.898   3.477   2.563
  590SOL    HW2 3620   0.777   3.391   2.612
  591SOL     OW 3621   0.218   2.581   3.259
  591SOL    HW1 3622   0.317   2.580   3.274
  591SOL    HW2 3623   0.200   2.492   3.219
  592SOL     OW 3624   1.175   3.411   3.530
  592SOL    HW1 3625   1.216   3.356   3.458
  592SOL    HW2 3626   1.147   3.343   3.597
  593SOL     OW 3627   1.381   3.012   3.029
  593SOL    HW1 3628   1.314   3.003   3.101
  593SOL    HW2 3629   1.384   2.922   2.984
  594SOL     OW 3630   1.606   3.259   2.666
  594SOL    HW1 3631   1.606   3.228   2.572
  594SOL    HW2 3632   1.561   3.186   2.717
  595SOL     OW 3633   1.273   2.024   2.951
  595SOL    HW1 3634   1.183   1.995   2.923
  595SOL    HW2 3635   1.302   1.963   3.025
  596SOL     OW 3636   0.826   2.249   3.474
  596SOL    HW1 3637   0.778   2.262   3.559
  596SOL    HW2 3638   0.763   2.205   3.409
  597SOL     OW 3639   1.303   2.139   3.625
  597SOL    HW1 3640   1.261   2.205   3.685
  597SOL    HW2 3641   1.382   2.104   3.673
  598SOL     OW 3642   0.938   2.519   3.581
  598SOL    HW1 3643   1.000   2.446   3.553
  598SOL    HW2 3644   0.876   2.537   3.505
  599SOL     OW 3645   0.994   2.079   3.263
  599SOL    HW1 3646   0.909   2.113   3.302
  599SOL    HW2 3647   0.969   2.002   3.206
  600SOL     OW 3648   0.132   2.467   2.840
  600SOL    HW1 3649   0.214   2.414   2.852
  600SOL    HW2 3650   0.156   2.559   2.869
  601SOL     OW 3651   0.572   1.887   2.932
  601SOL    HW1 3652   0.572   1.923   3.025
  601SOL    HW2 3653   0.579   1.966   2.871
  602SOL     OW 3654   0.413   3.383   2.938
  602SOL    HW1 3655   0.452   3.290   2.934
  602SOL    HW2 3656   0.440   3.421   3.025
  603SOL     OW 3657   1.711   2.687   2.891
  603SOL    HW1 3658   1.639   2.700   2.825
  603SOL    HW2 3659   1.667   2.696   2.981
  604SOL     OW 3660   1.187   3.128   3.490
  604SOL    HW1 3661   1.223   3.089   3.573
  604SOL    HW2 3662   1.144   3.055   3.438
  605SOL     OW 3663   1.433   2.382   2.781
  605SOL    HW1 3664   1.397   2.367   2.873
  605SOL    HW2 3665   1.521   2.427   2.791
  606SOL     OW 3666   0.245   1.954   3.501
  606SOL    HW1 3667   0.202   2.037   3.466
  606SOL    HW2 3668   0.234   1.954   3.599
  607SOL     OW 3669   1.338   2.236   3.385
  607SOL    HW1 3670   1.326   2.186   3.471
  607SOL    HW2 3671   1.371   2.325   3.412
  608SOL     OW 3672   0.801   3.017   2.984
  608SOL    HW1 3673   0.897   2.998   2.958
  608SOL    HW2 3674   0.746   2.983   2.908
  609SOL     OW 3675   0.584   1.765   2.636
  609SOL    HW1 3676   0.486   1.766   2.622
  609SOL    HW2 3677   0.625   1.814   2.561
  610SOL     OW 3678   1.085   2.323   3.465
  610SOL    HW1 3679   1.000   2.270   3.470
  610SOL    HW2 3680   1.156   2.265   3.428
  611SOL     OW 3681   1.193   3.154   2.862
  611SOL    HW1 3682   1.211   3.215   2.785
  611SOL    HW2 3683   1.272   3.157   2.920
  612SOL     OW 3684   1.230   3.377   2.691
  612SOL    HW1 3685   1.268   3.429   2.615
  612SOL    HW2 3686   1.174   3.438   2.743
  613SOL     OW 3687   0.167   2.198   3.417
  613SOL    HW1 3688   0.253   2.211   3.366
  613SOL    HW2 3689   0.162   2.280   3.475
  614SOL     OW 3690   0.569   1.909   3.205
  614SOL    HW1 3691   0.616   1.825   3.232
  614SOL    HW2 3692   0.480   1.900   3.246
  615SOL     OW 3693   1.019   1.772   2.791
  615SOL    HW1 3694   0.942   1.804   2.738
  615SOL    HW2 3695   0.986   1.707   2.859
  616SOL     OW 3696   1.391   2.780   2.899
  616SOL    HW1 3697   1.332   2.701   2.879
  616SOL    HW2 3698   1.410   2.820   2.810
  617SOL     OW 3699   1.383   2.262   3.019
  617SOL    HW1 3700   1.325   2.180   3.023
  617SOL    HW2 3701   1.448   2.255   3.096
  618SOL     OW 3702   1.651   2.843   3.539
  618SOL    HW1 3703   1.746   2.819   3.517
  618SOL    HW2 3704   1.660   2.928   3.590
  619SOL     OW 3705   1.070   2.930   3.354
  619SOL    HW1 3706   0.970   2.926   3.344
  619SOL    HW2 3707   1.087   2.865   3.426
  620SOL     OW 3708   1.488   3.139   3.563
  620SOL    HW1 3709   1.502   3.214   3.499
  620SOL    HW2 3710   1.569   3.136   3.621
  621SOL     OW 3711   1.568   2.731   3.112
  621SOL    HW1 3712   1.605   2.814   3.152
  621SOL    HW2 3713   1.487   2.754   3.058
  622SOL     OW 3714   0.873   1.808   3.410
  622SOL    HW1 3715   0.913   1.791   3.320
  622SOL    HW2 3716   0.949   1.804   3.473
  623SOL     OW 3717   0.972   2.781   3.593
  623SOL    HW1 3718   0.916   2.805   3.670
  623SOL    HW2 3719   0.974   2.680   3.594
  624SOL     OW 3720   0.474   2.495   3.272
  624SOL    HW1 3721   0.567   2.504   3.303
  624SOL    HW2 3722   0.447   2.400   3.286
  625SOL     OW 3723   0.115   3.108   3.297
  625SOL    HW1 3724   0.081   3.201   3.303
  625SOL    HW2 3725   0.208   3.110   3.332
  626SOL     OW 3726   0.432   2.715   2.623
  626SOL    HW1 3727   0.432   2.796   2.567
  626SOL    HW2 3728   0.433   2.637   2.562
  627SOL     OW 3729   0.593   2.181   2.914
  627SOL    HW1 3730   0.598   2.213   2.820
  627SOL    HW2 3731   0.646   2.244   2.970
  628SOL     OW 3732   0.388   3.102   3.337
  628SOL    HW1 3733   0.374   3.067   3.244
  628SOL    HW2 3734   0.482   3.138   3.336
  629SOL     OW 3735   0.438   2.383   3.569
  629SOL    HW1 3736   0.510   2.450   3.575
  629SOL    HW2 3737   0.479   2.293   3.574
  630SOL     OW 3738   1.460   2.416   3.564
  630SOL    HW1 3739   1.443   2.411   3.661
  630SOL    HW2 3740   1.553   2.454   3.556
  631SOL     OW 3741   0.501   1.746   3.624
  631SOL    HW1 3742   0.423   1.687   3.638
  631SOL    HW2 3743   0.514   1.799   3.707
  632SOL     OW 3744   1.303   2.518   3.074
  632SOL    HW1 3745   1.218   2.511   3.025
  632SOL    HW2 3746   1.342   2.426   3.073
  633SOL     OW 3747   0.747   2.331   3.076
  633SOL    HW1 3748   0.821   2.317   3.013
  633SOL    HW2 3749   0.718   2.425   3.062
  634SOL     OW 3750   0.306   1.761   2.684
  634SOL    HW1 3751   0.307   1.860   2.697
  634SOL    HW2 3752   0.342   1.722   2.768
  635SOL     OW 3753   1.035   2.394   3.009
  635SOL    HW1 3754   1.019   2.425   3.104
  635SOL    HW2 3755   1.052   2.297   3.015
  636SOL     OW 3756   1.039   2.934   2.895
  636SOL    HW1 3757   1.061   2.862   2.832
  636SOL    HW2 3758   1.100   3.012   2.875
  637SOL     OW 3759   0.359   2.187   3.042
  637SOL    HW1 3760   0.325   2.094   3.037
  637SOL    HW2 3761   0.439   2.191   2.981
  638SOL     OW 3762   1.157   1.925   3.457
  638SOL    HW1 3763   1.173   1.980   3.538
  638SOL    HW2 3764   1.108   1.982   3.392
  639SOL     OW 3765   0.136   3.371   2.998
  639SOL    HW1 3766   0.094   3.291   2.957
  639SOL    HW2 3767   0.232   3.370   2.973
  640SOL     OW 3768   0.558   3.156   2.948
  640SOL    HW1 3769   0.649   3.141   2.986
  640SOL    HW2 3770   0.555   3.094   2.869
  641SOL     OW 3771   0.978   2.452   3.255
  641SOL    HW1 3772   1.037   2.421   3.331
  641SOL    HW2 3773   0.889   2.414   3.274
  642SOL     OW 3774   0.107   2.288   3.146
  642SOL    HW1 3775   0.179   2.253   3.087
  642SOL    HW2 3776   0.096   2.222   3.219
  643SOL     OW 3777   1.343   2.662   3.558
  643SOL    HW1 3778   1.307   2.653   3.650
  643SOL    HW2 3779   1.370   2.569   3.531
  644SOL     OW 3780   0.779   2.282   2.561
  644SOL    HW1 3781   0.819   2.203   2.518
  644SOL    HW2 3782   0.739   2.338   2.490
  645SOL     OW 3783   1.562   2.261   3.212
  645SOL    HW1 3784   1.533   2.223   3.299
  645SOL    HW2 3785   1.655   2.230   3.194
  646SOL     OW 3786   0.702   2.137   3.269
  646SOL    HW1 3787   0.655   2.054   3.240
  646SOL    HW2 3788   0.704   2.200   3.191
  647SOL     OW 3789   0.890   3.199   3.453
  647SOL    HW1 3790   0.953   3.157   3.391
  647SOL    HW2 3791   0.931   3.283   3.484
  648SOL     OW 3792   1.305   2.733   3.257
  648SOL    HW1 3793   1.324   2.654   3.198
  648SOL    HW2 3794   1.207   2.741   3.258
  649SOL     OW 3795   1.670   3.293   3.149
  649SOL    HW1 3796   1.737   3.344   3.096
  649SOL    HW2 3797   1.664   3.205   3.103
  650SOL     OW 3798   1.204   3.306   3.159
  650SOL    HW1 3799   1.286   3.323   3.103
  650SOL    HW2 3800   1.209   3.212   3.187
  651SOL     OW 3801   0.123   2.911   3.047
  651SOL    HW1 3802   0.112   2.934   3.143
  651SOL    HW2 3803   0.059   2.840   3.021
  652SOL     OW 3804   1.331   3.138   2.597
  652SOL    HW1 3805   1.372   3.129   2.508
  652SOL    HW2 3806   1.280   3.223   2.599
  653SOL     OW 3807   1.266   2.599   2.736
  653SOL    HW1 3808   1.308   2.508   2.737
  653SOL    HW2 3809   1.243   2.618   2.642
  654SOL     OW 3810   0.804   2.903   3.385
  654SOL    HW1 3811   0.793   2.942   3.477
  654SOL    HW2 3812   0.712   2.880   3.354
  655SOL     OW 3813   1.544   3.335   3.386
  655SOL    HW1 3814   1.586   3.316   3.297
  655SOL    HW2 3815   1.582   3.419   3.420
  656SOL     OW 3816   1.724   1.887   2.991
  656SOL    HW1 3817   1.774   1.802   2.968
  656SOL    HW2 3818   1.629   1.868   2.974
  657SOL     OW 3819   0.308   2.010   2.797
  657SOL    HW1 3820   0.221   2.048   2.764
  657SOL    HW2 3821   0.293   1.981   2.891
  658SOL     OW 3822   0.794   2.625   3.371
  658SOL    HW1 3823   0.849   2.613   3.290
  658SOL    HW2 3824   0.809   2.719   3.400
  659SOL     OW 3825   0.425   2.891   3.513
  659SOL    HW1 3826   0.406   2.966   3.450
  659SOL    HW2 3827   0.355   2.823   3.501
  660SOL     OW 3828   1.426   3.340   3.006
  660SOL    HW1 3829   1.452   3.378   2.919
  660SOL    HW2 3830   1.508   3.333   3.061
  661SOL     OW 3831   0.470   3.334   3.544
  661SOL    HW1 3832   0.377   3.366   3.556
  661SOL    HW2 3833   0.468   3.236   3.562
  662SOL     OW 3834   1.637   2.519   3.261
  662SOL    HW1 3835   1.595   2.433   3.235
  662SOL    HW2 3836   1.600   2.591   3.201
  663SOL     OW 3837   0.586   2.414   2.726
  663SOL    HW1 3838   0.677   2.422   2.689
  663SOL    HW2 3839   0.540   2.348   2.668
  664SOL     OW 3840   1.682   2.555   3.520
  664SOL    HW1 3841   1.676   2.650   3.546
  664SOL    HW2 3842   1.671   2.549   3.420
  665SOL     OW 3843   0.846   2.563   2.912
  665SOL    HW1 3844   0.928   2.514   2.939
  665SOL    HW2 3845   0.831   2.638   2.978
  666SOL     OW 3846   0.044   3.127   2.899
  666SOL    HW1 3847   0.060   3.110   2.803
  666SOL    HW2 3848   0.082   3.049   2.948
  667SOL     OW 3849   0.137   2.799   2.725
  667SOL    HW1 3850   0.188   2.758   2.800
  667SOL    HW2 3851   0.175   2.762   2.642
  668SOL     OW 3852   0.664   3.027   3.597
  668SOL    HW1 3853   0.587   2.964   3.605
  668SOL    HW2 3854   0.693   3.051   3.688
  669SOL     OW 3855   1.717   1.908   3.266
  669SOL    HW1 3856   1.733   1.815   3.294
  669SOL    HW2 3857   1.722   1.910   3.167
  670SOL     OW 3858   0.514   2.095   2.653
  670SOL    HW1 3859   0.477   2.071   2.564
  670SOL    HW2 3860   0.441   2.075   2.717
  671SOL     OW 3861   0.401   2.237   3.300
  671SOL    HW1 3862   0.458   2.173   3.351
  671SOL    HW2 3863   0.400   2.210   3.203
  672SOL     OW 3864   0.781   3.200   2.729
  672SOL    HW1 3865   0.859   3.179   2.672
  672SOL    HW2 3866   0.731   3.114   2.739
  673SOL     OW 3867   1.379   1.903   3.173
  673SOL    HW1 3868   1.439   1.845   3.225
  673SOL    HW2 3869   1.331   1.959   3.238
  674SOL     OW 3870   0.973   3.440   3.167
  674SOL    HW1 3871   0.927   3.371   3.116
  674SOL    HW2 3872   1.069   3.409   3.171
  675SOL     OW 3873   0.658   3.148   3.296
  675SOL    HW1 3874   0.697   3.159   3.387
  675SOL    HW2 3875   0.734   3.117   3.241
  676SOL     OW 3876   1.963   2.006   3.032
  676SOL    HW1 3877   1.998   1.960   3.114
  676SOL    HW2 3878   1.874   1.964   3.014
  677SOL     OW 3879   2.780   2.341   2.771
  677SOL    HW1 3880   2.834   2.421   2.747
  677SOL    HW2 3881   2.733   2.360   2.855
  678SOL     OW 3882   2.455   2.772   3.051
  678SOL    HW1 3883   2.378   2.811   3.099
  678SOL    HW2 3884   2.489   2.841   2.989
  679SOL     OW 3885   2.043   3.026   3.083
  679SOL    HW1 3886   2.023   2.946   3.029
  679SOL    HW2 3887   2.114   3.077   3.035
  680SOL     OW 3888   2.191   2.069   3.489
  680SOL    HW1 3889   2.258   2.032   3.552
  680SOL    HW2 3890   2.102   2.033   3.516
  681SOL     OW 3891   1.990   3.081   2.686
  681SOL    HW1 3892   1.969   3.115   2.596
  681SOL    HW2 3893   1.939   2.995   2.698
  682SOL     OW 3894   1.998   2.724   2.980
  682SOL    HW1 3895   2.013   2.626   2.983
  682SOL    HW2 3896   1.913   2.740   3.027
  683SOL     OW 3897   2.293   3.389   3.459
  683SOL    HW1 3898   2.300   3.319   3.528
  683SOL    HW2 3899   2.382   3.434   3.454
  684SOL     OW 3900   2.347   2.968   2.815
  684SOL    HW1 3901   2.304   2.877   2.812
  684SOL    HW2 3902   2.327   3.010   2.726
  685SOL     OW 3903   2.960   2.790   3.407
  685SOL    HW1 3904   2.952   2.718   3.476
  685SOL    HW2 3905   2.999   2.869   3.453
  686SOL     OW 3906   1.917   2.615   3.256
  686SOL    HW1 3907   2.000   2.558   3.256
  686SOL    HW2 3908   1.838   2.555   3.252
  687SOL     OW 3909   2.851   3.357   3.537
  687SOL    HW1 3910   2.910   3.435   3.545
  687SOL    HW2 3911   2.858   3.307   3.621
  688SOL     OW 3912   2.969   2.005   2.976
  688SOL    HW1 3913   2.871   1.994   2.968
  688SOL    HW2 3914   2.985   2.032   3.071
  689SOL     OW 3915   2.481   2.261   3.489
  689SOL    HW1 3916   2.451   2.221   3.574
  689SOL    HW2 3917   2.434   2.214   3.414
  690SOL     OW 3918   2.688   2.603   3.531
  690SOL    HW1 3919   2.722   2.509   3.531
  690SOL    HW2 3920   2.590   2.595   3.522
  691SOL     OW 3921   2.673   2.075   3.260
  691SOL    HW1 3922   2.589   2.114   3.295
  691SOL    HW2 3923   2.655   2.045   3.167
  692SOL     OW 3924   1.824   2.447   2.833
  692SOL    HW1 3925   1.918   2.441   2.869
  692SOL    HW2 3926   1.793   2.540   2.851
  693SOL     OW 3927   2.122   3.407   2.892
  693SOL    HW1 3928   2.127   3.308   2.905
  693SOL    HW2 3929   2.210   3.431   2.856
  694SOL     OW 3930   2.918   3.082   3.468
  694SOL    HW1 3931   2.880   3.071   3.560
  694SOL    HW2 3932   2.883   3.171   3.438
  695SOL     OW 3933   1.935   1.974   3.513
  695SOL    HW1 3934   1.866   2.036   3.477
  695SOL    HW2 3935   1.905   1.947   3.603
  696SOL     OW 3936   2.016   3.373   3.263
  696SOL    HW1 3937   2.046   3.279   3.282
  696SOL    HW2 3938   1.978   3.371   3.171
  697SOL     OW 3939   2.569   3.110   3.157
  697SOL    HW1 3940   2.598   3.091   3.064
  697SOL    HW2 3941   2.621   3.047   3.213
  698SOL     OW 3942   2.995   2.250   3.459
  698SOL    HW1 3943   3.060   2.198   3.511
  698SOL    HW2 3944   3.046   2.319   3.410
  699SOL     OW 3945   2.575   2.196   2.963
  699SOL    HW1 3946   2.561   2.193   2.864
  699SOL    HW2 3947   2.631   2.116   2.983
  700SOL     OW 3948   2.744   2.348   3.451
  700SOL    HW1 3949   2.665   2.293   3.477
  700SOL    HW2 3950   2.825   2.291   3.465
  701SOL     OW 3951   2.872   3.168   2.863
  701SOL    HW1 3952   2.876   3.209   2.774
  701SOL    HW2 3953   2.967   3.160   2.895
  702SOL     OW 3954   2.207   2.742   2.810
  702SOL    HW1 3955   2.132   2.740   2.876
  702SOL    HW2 3956   2.165   2.730   2.721
  703SOL     OW 3957   1.834   2.228   3.402
  703SOL    HW1 3958   1.932   2.230   3.383
  703SOL    HW2 3959   1.815   2.297   3.471
  704SOL     OW 3960   2.292   1.920   3.177
  704SOL    HW1 3961   2.340   1.837   3.197
  704SOL    HW2 3962   2.199   1.908   3.212
  705SOL     OW 3963   2.509   2.140   2.697
  705SOL    HW1 3964   2.539   2.216   2.642
  705SOL    HW2 3965   2.563   2.063   2.667
  706SOL     OW 3966   2.689   1.778   2.790
  706SOL    HW1 3967   2.635   1.756   2.711
  706SOL    HW2 3968   2.677   1.701   2.854
  707SOL     OW 3969   2.576   1.804   3.421
  707SOL    HW1 3970   2.613   1.790   3.328
  707SOL    HW2 3971   2.628   1.878   3.461
  708SOL     OW 3972   2.133   2.460   3.264
  708SOL    HW1 3973   2.198   2.477   3.339
  708SOL    HW2 3974   2.112   2.362   3.274
  709SOL     OW 3975   2.942   2.066   3.252
  709SOL    HW1 3976   2.968   2.126   3.327
  709SOL    HW2 3977   2.842   2.063   3.255
  710SOL     OW 3978   1.816   3.152   3.359
  710SOL    HW1 3979   1.790   3.219   3.292
  710SOL    HW2 3980   1.916   3.139   3.353
  711SOL     OW 3981   2.070   2.721   2.580
  711SOL    HW1 3982   2.057   2.799   2.520
  711SOL    HW2 3983   2.088   2.643   2.522
  712SOL     OW 3984   2.869   3.000   3.200
  712SOL    HW1 3985   2.953   3.046   3.226
  712SOL    HW2 3986   2.868   2.988   3.101
  713SOL     OW 3987   2.077   3.117   3.329
  713SOL    HW1 3988   2.060   3.066   3.245
  713SOL    HW2 3989   2.176   3.108   3.344
  714SOL     OW 3990   2.306   2.508   3.053
  714SOL    HW1 3991   2.353   2.595   3.046
  714SOL    HW2 3992   2.260   2.505   3.141
  715SOL     OW 3993   3.033   2.516   3.110
  715SOL    HW1 3994   2.965   2.519   3.039
  715SOL    HW2 3995   3.083   2.430   3.098
  716SOL     OW 3996   2.038   1.889   3.265
  716SOL    HW1 3997   2.003   1.925   3.351
  716SOL    HW2 3998   2.029   1.789   3.272
  717SOL     OW 3999   1.759   2.902   3.257
  717SOL    HW1 4000   1.817   2.842   3.311
  717SOL    HW2 4001   1.775   2.994   3.293
  718SOL     OW 4002   2.067   1.784   2.671
  718SOL    HW1 4003   2.045   1.876   2.700
  718SOL    HW2 4004   2.041   1.720   2.741
  719SOL     OW 4005   2.721   3.063   3.639
  719SOL    HW1 4006   2.673   3.129   3.580
  719SOL    HW2 4007   2.666   3.052   3.722
  720SOL     OW 4008   1.759   3.089   3.614
  720SOL    HW1 4009   1.778   3.115   3.519
  720SOL    HW2 4010   1.844   3.090   3.664
  721SOL     OW 4011   2.742   2.938   2.942
  721SOL    HW1 4012   2.735   2.864   2.874
  721SOL    HW2 4013   2.779   3.017   2.894
  722SOL     OW 4014   2.057   2.443   2.971
  722SOL    HW1 4015   2.155   2.464   2.973
  722SOL    HW2 4016   2.037   2.404   3.059
  723SOL     OW 4017   2.768   2.093   3.615
  723SOL    HW1 4018   2.711   2.121   3.691
  723SOL    HW2 4019   2.856   2.069   3.652
  724SOL     OW 4020   1.869   3.368   2.987
  724SOL    HW1 4021   1.828   3.287   2.943
  724SOL    HW2 4022   1.953   3.388   2.936
  725SOL     OW 4023   2.243   3.165   2.959
  725SOL    HW1 4024   2.329   3.210   2.975
  725SOL    HW2 4025   2.266   3.086   2.901
  726SOL     OW 4026   2.661   2.475   3.228
  726SOL    HW1 4027   2.708   2.438   3.308
  726SOL    HW2 4028   2.601   2.404   3.197
  727SOL     OW 4029   1.813   2.210   3.130
  727SOL    HW1 4030   1.880   2.145   3.094
  727SOL    HW2 4031   1.828   2.214   3.229
  728SOL     OW 4032   3.044   2.609   3.585
  728SOL    HW1 4033   3.033   2.651   3.674
  728SOL    HW2 4034   3.035   2.512   3.599
  729SOL     OW 4035   2.403   2.154   3.247
  729SOL    HW1 4036   2.359   2.065   3.228
  729SOL    HW2 4037   2.424   2.195   3.159
  730SOL     OW 4038   2.623   3.203   3.429
  730SOL    HW1 4039   2.591   3.202   3.335
  730SOL    HW2 4040   2.631   3.299   3.454
  731SOL     OW 4041   1.903   2.764   3.476
  731SOL    HW1 4042   1.944   2.719   3.554
  731SOL    HW2 4043   1.921   2.707   3.396
  732SOL     OW 4044   2.956   2.559   2.725
  732SOL    HW1 4045   3.033   2.500   2.744
  732SOL    HW2 4046   2.990   2.633   2.669
  733SOL     OW 4047   2.532   2.911   3.406
  733SOL    HW1 4048   2.499   2.943   3.495
  733SOL    HW2 4049   2.451   2.922   3.350
  734SOL     OW 4050   2.041   2.055   2.777
  734SOL    HW1 4051   1.960   2.069   2.721
  734SOL    HW2 4052   2.008   2.036   2.870
  735SOL     OW 4053   2.484   2.650   3.341
  735SOL    HW1 4054   2.557   2.603   3.291
  735SOL    HW2 4055   2.520   2.737   3.372
  736SOL     OW 4056   2.721   2.732   2.764
  736SOL    HW1 4057   2.656   2.668   2.804
  736SOL    HW2 4058   2.790   2.677   2.720
  737SOL     OW 4059   2.690   1.947   3.005
  737SOL    HW1 4060   2.689   1.898   2.918
  737SOL    HW2 4061   2.688   1.875   3.075
  738SOL     OW 4062   2.320   3.113   2.594
  738SOL    HW1 4063   2.352   3.053   2.522
  738SOL    HW2 4064   2.242   3.162   2.559
  739SOL     OW 4065   2.318   2.477   3.447
  739SOL    HW1 4066   2.378   2.550   3.413
  739SOL    HW2 4067   2.378   2.403   3.476
  740SOL     OW 4068   2.286   2.379   2.711
  740SOL    HW1 4069   2.347   2.446   2.750
  740SOL    HW2 4070   2.243   2.422   2.633
  741SOL     OW 4071   2.572   2.566   2.915
  741SOL    HW1 4072   2.572   2.488   2.975
  741SOL    HW2 4073   2.534   2.642   2.968
  742SOL     OW 4074   1.742   3.131   2.925
  742SOL    HW1 4075   1.690   3.122   2.841
  742SOL    HW2 4076   1.788   3.045   2.937
  743SOL     OW 4077   1.861   2.845   2.720
  743SOL    HW1 4078   1.820   2.788   2.790
  743SOL    HW2 4079   1.921   2.785   2.667
  744SOL     OW 4080   2.365   3.005   3.602
  744SOL    HW1 4081   2.331   2.929   3.656
  744SOL    HW2 4082   2.385   3.077   3.666
  745SOL     OW 4083   2.084   2.202   3.286
  745SOL    HW1 4084   2.132   2.161   3.365
  745SOL    HW2 4085   2.117   2.152   3.208
  746SOL     OW 4086   2.534   3.184   2.781
  746SOL    HW1 4087   2.542   3.191   2.683
  746SOL    HW2 4088   2.477   3.105   2.796
  747SOL     OW 4089   2.685   3.431   3.179
  747SOL    HW1 4090   2.631   3.387   3.109
  747SOL    HW2 4091   2.779   3.427   3.148
  748SOL     OW 4092   2.341   3.145   3.300
  748SOL    HW1 4093   2.341   3.238   3.334
  748SOL    HW2 4094   2.419   3.135   3.238
  749SOL     OW 4095   0.541   3.464   2.629
  749SOL    HW1 4096   0.447   3.434   2.623
  749SOL    HW2 4097   0.567   3.493   2.537
  750SOL     OW 4098   0.863   3.467   3.426
  750SOL    HW1 4099   0.897   3.452   3.333
  750SOL    HW2 4100   0.904   3.554   3.454
  751SOL     OW 4101   0.277   3.442   2.695
  751SOL    HW1 4102   0.287   3.540   2.676
  751SOL    HW2 4103   0.305   3.425   2.789
  752SOL     OW 4104   1.644   3.523   2.648
  752SOL    HW1 4105   1.686   3.534   2.559
  752SOL    HW2 4106   1.629   3.425   2.660
  753SOL     OW 4107   2.663   3.443   2.843
  753SOL    HW1 4108   2.656   3.471   2.749
  753SOL    HW2 4109   2.657   3.344   2.844
  754SOL     OW 4110   2.572   3.473   3.420
  754SOL    HW1 4111   2.620   3.460   3.333
  754SOL    HW2 4112   2.634   3.518   3.483
   3.09600   3.58633   4.15800
