2 Na-montmorillonite layers with three water-layers
 4112
    1MMT    Mgo    1   0.264   0.195   4.157
    1MMT    Sit    2   0.350   0.026   0.263
    1MMT    Sit    3   0.353   0.326   0.265
    1MMT    Omg    4   0.332   0.034   0.110
    1MMT    Omg    5   0.372   0.324   0.111
    1MMT   Ohmg    6   0.090   0.213   0.107
    1MMT     Ob    7   3.066   0.382   0.330
    1MMT     Ob    8   0.335   0.176   0.324
    1MMT     Ob    9   0.229   0.418   0.305
    1MMT      H   10   0.043   0.128   0.125
    1MMT    Alo   11   0.006   0.643   0.001
    1MMT    Sit   12   0.085   0.475   0.268
    1MMT    Sit   13   0.089   0.769   0.269
    1MMT     Op   14   0.063   0.488   0.111
    1MMT    Omg   15   0.097   0.761   0.114
    1MMT   Ohmg   16   0.371   0.650   0.104
    1MMT     Ob   17   0.227   0.833   0.326
    1MMT     Ob   18   0.069   0.622   0.330
    1MMT     Ob   19   3.063   0.864   0.312
    1MMT      H   20   0.321   0.566   0.119
    1MMT    Mgo   21   0.264   0.792   4.158
    1MMT    Sit   22   0.190   0.056   3.890
    1MMT    Sit   23   0.172   0.663   3.892
    1MMT    Omg   24   0.207   0.037   4.043
    1MMT    Omg   25   0.156   0.662   4.045
    1MMT   Ohmg   26   0.436   0.772   4.047
    1MMT     Ob   27   0.559   0.603   3.824
    1MMT     Ob   28   0.189   0.812   3.834
    1MMT     Ob   29   0.299   0.571   3.850
    1MMT      H   30   0.481   0.859   4.038
    1MMT    Alo   31   0.005   0.344   0.001
    1MMT    Sit   32   0.442   0.512   3.887
    1MMT    Sit   33   0.440   0.218   3.888
    1MMT     Op   34   0.465   0.497   4.044
    1MMT    Omg   35   0.432   0.226   4.042
    1MMT   Ohmg   36   0.156   0.334   4.050
    1MMT     Ob   37   0.301   0.155   3.830
    1MMT     Ob   38   0.458   0.363   3.824
    1MMT     Ob   39   0.562   0.119   3.847
    1MMT      H   40   0.200   0.421   4.034
    1MMT    Alo   41   0.784   0.194   4.154
    1MMT    Sit   42   0.865   0.030   0.263
    1MMT    Sit   43   0.866   0.324   0.267
    1MMT     Op   44   0.846   0.041   0.106
    1MMT     Op   45   0.880   0.314   0.109
    1MMT     Oh   46   0.621   0.204   0.101
    1MMT     Ob   47   0.490   0.384   0.328
    1MMT     Ob   48   0.843   0.176   0.325
    1MMT     Ob   49   0.745   0.420   0.304
    1MMT      H   50   0.566   0.123   0.111
    1MMT    Alo   51   0.522   0.644   4.154
    1MMT    Sit   52   0.602   0.479   0.264
    1MMT    Sit   53   0.606   0.775   0.266
    1MMT     Op   54   0.587   0.488   0.107
    1MMT     Op   55   0.620   0.769   0.107
    1MMT   Ohmg   56   0.863   0.663   0.107
    1MMT     Ob   57   0.743   0.831   0.326
    1MMT     Ob   58   0.583   0.627   0.324
    1MMT     Ob   59   0.485   0.872   0.304
    1MMT      H   60   0.815   0.580   0.127
    1MMT    Alo   61   0.778   0.793  -0.000
    1MMT    Sit   62   0.706   0.062   3.884
    1MMT    Sit   63   0.697   0.662   3.888
    1MMT     Op   64   0.725   0.048   4.042
    1MMT     Op   65   0.680   0.667   4.046
    1MMT   Ohmg   66   0.929   0.783   4.050
    1MMT     Ob   67   1.076   0.601   3.831
    1MMT     Ob   68   0.715   0.809   3.830
    1MMT     Ob   69   0.816   0.563   3.850
    1MMT      H   70   0.979   0.865   4.028
    1MMT    Alo   71   0.523   0.345   4.155
    1MMT    Sit   72   0.962   0.506   3.889
    1MMT    Sit   73   0.956   0.213   3.885
    1MMT    Omg   74   0.976   0.486   4.043
    1MMT     Op   75   0.940   0.219   4.044
    1MMT     Oh   76   0.689   0.329   4.053
    1MMT     Ob   77   0.820   0.153   3.825
    1MMT     Ob   78   0.979   0.357   3.824
    1MMT     Ob   79   1.078   0.114   3.851
    1MMT      H   80   0.736   0.415   4.038
    1MMT    Alo   81   1.300   0.193   0.000
    1MMT    Sit   82   1.381   0.032   0.266
    1MMT    Sit   83   1.381   0.325   0.273
    1MMT    Omg   84   1.366   0.050   0.113
    1MMT     Op   85   1.397   0.317   0.111
    1MMT     Oh   86   1.136   0.204   0.101
    1MMT     Ob   87   1.001   0.381   0.329
    1MMT     Ob   88   1.362   0.177   0.331
    1MMT     Ob   89   1.260   0.420   0.305
    1MMT      H   90   1.091   0.118   0.119
    1MMT    Mgo   91   1.035   0.643   4.157
    1MMT    Sit   92   1.116   0.476   0.266
    1MMT    Sit   93   1.124   0.774   0.266
    1MMT    Omg   94   1.097   0.481   0.111
    1MMT    Omg   95   1.143   0.772   0.111
    1MMT     Oh   96   1.393   0.653   0.102
    1MMT     Ob   97   1.259   0.833   0.328
    1MMT     Ob   98   1.098   0.626   0.323
    1MMT     Ob   99   1.002   0.872   0.304
    1MMT      H  100   1.340   0.574   0.126
    1MMT    Alo  101   1.294   0.791   4.155
    1MMT    Sit  102   1.223   0.061   3.892
    1MMT    Sit  103   1.215   0.663   3.888
    1MMT    Omg  104   1.242   0.054   4.045
    1MMT    Omg  105   1.204   0.672   4.043
    1MMT     Oh  106   1.461   0.775   4.053
    1MMT     Ob  107   1.593   0.597   3.831
    1MMT     Ob  108   1.239   0.807   3.825
    1MMT     Ob  109   1.334   0.562   3.852
    1MMT      H  110   1.504   0.862   4.035
    1MMT    Alo  111   1.039   0.345   4.156
    1MMT    Sit  112   1.478   0.506   3.888
    1MMT    Sit  113   1.472   0.213   3.888
    1MMT     Op  114   1.496   0.493   4.047
    1MMT     Op  115   1.457   0.221   4.047
    1MMT     Oh  116   1.201   0.331   4.054
    1MMT     Ob  117   1.336   0.153   3.824
    1MMT     Ob  118   1.495   0.357   3.829
    1MMT     Ob  119   1.592   0.113   3.853
    1MMT      H  120   1.244   0.419   4.039
    1MMT    Alo  121   1.816   0.192   4.158
    1MMT    Sit  122   1.899   0.028   0.267
    1MMT    Sit  123   1.898   0.322   0.270
    1MMT     Op  124   1.878   0.040   0.108
    1MMT     Op  125   1.912   0.313   0.110
    1MMT     Oh  126   1.651   0.204   0.102
    1MMT     Ob  127   1.519   0.382   0.329
    1MMT     Ob  128   1.874   0.175   0.328
    1MMT     Ob  129   1.777   0.418   0.305
    1MMT      H  130   1.599   0.123   0.122
    1MMT    Alo  131   1.554   0.641   4.157
    1MMT    Sit  132   1.633   0.475   0.270
    1MMT    Sit  133   1.638   0.768   0.269
    1MMT     Op  134   1.614   0.486   0.110
    1MMT     Op  135   1.651   0.763   0.109
    1MMT   Ohmg  136   1.896   0.663   0.108
    1MMT     Ob  137   1.774   0.832   0.327
    1MMT     Ob  138   1.618   0.623   0.328
    1MMT     Ob  139   1.515   0.861   0.303
    1MMT      H  140   1.848   0.583   0.138
    1MMT    Alo  141   1.810   0.790   4.158
    1MMT    Sit  142   1.738   0.059   3.888
    1MMT    Sit  143   1.728   0.659   3.889
    1MMT     Op  144   1.758   0.046   4.046
    1MMT     Op  145   1.711   0.665   4.048
    1MMT   Ohmg  146   1.963   0.781   4.050
    1MMT     Ob  147   2.111   0.598   3.834
    1MMT     Ob  148   1.747   0.805   3.831
    1MMT     Ob  149   1.850   0.563   3.854
    1MMT      H  150   2.007   0.866   4.029
    1MMT    Alo  151   1.554   0.343   0.001
    1MMT    Sit  152   1.992   0.505   3.893
    1MMT    Sit  153   1.987   0.212   3.888
    1MMT    Omg  154   2.008   0.486   4.046
    1MMT     Op  155   1.972   0.218   4.047
    1MMT     Oh  156   1.718   0.327   4.055
    1MMT     Ob  157   1.850   0.153   3.827
    1MMT     Ob  158   2.008   0.357   3.828
    1MMT     Ob  159   2.109   0.116   3.851
    1MMT      H  160   1.765   0.412   4.036
    1MMT    Alo  161   2.332   0.193   4.155
    1MMT    Sit  162   2.414   0.031   0.261
    1MMT    Sit  163   2.413   0.324   0.270
    1MMT    Omg  164   2.400   0.052   0.109
    1MMT     Op  165   2.429   0.320   0.110
    1MMT     Oh  166   2.170   0.205   0.100
    1MMT     Ob  167   2.035   0.380   0.329
    1MMT     Ob  168   2.393   0.177   0.329
    1MMT     Ob  169   2.291   0.418   0.307
    1MMT      H  170   2.125   0.120   0.121
    1MMT    Mgo  171   2.068   0.643   0.001
    1MMT    Sit  172   2.147   0.476   0.266
    1MMT    Sit  173   2.157   0.774   0.269
    1MMT    Omg  174   2.131   0.482   0.113
    1MMT    Omg  175   2.177   0.773   0.115
    1MMT     Oh  176   2.425   0.656   0.106
    1MMT     Ob  177   2.292   0.835   0.334
    1MMT     Ob  178   2.136   0.626   0.326
    1MMT     Ob  179   2.034   0.871   0.307
    1MMT      H  180   2.372   0.575   0.124
    1MMT    Alo  181   2.328   0.793   0.003
    1MMT    Sit  182   2.256   0.062   3.889
    1MMT    Sit  183   2.247   0.665   3.894
    1MMT    Omg  184   2.274   0.055   4.043
    1MMT    Omg  185   2.237   0.672   4.047
    1MMT     Oh  186   2.494   0.778   4.058
    1MMT     Ob  187   2.624   0.604   3.830
    1MMT     Ob  188   2.266   0.809   3.831
    1MMT     Ob  189   2.369   0.569   3.852
    1MMT      H  190   2.542   0.860   4.033
    1MMT    Alo  191   2.070   0.345   4.158
    1MMT    Sit  192   2.512   0.511   3.890
    1MMT    Sit  193   2.505   0.215   3.887
    1MMT     Op  194   2.529   0.498   4.048
    1MMT     Op  195   2.488   0.225   4.046
    1MMT     Oh  196   2.233   0.333   4.053
    1MMT     Ob  197   2.371   0.153   3.827
    1MMT     Ob  198   2.528   0.361   3.829
    1MMT     Ob  199   2.626   0.116   3.855
    1MMT      H  200   2.277   0.421   4.048
    1MMT    Alo  201   2.846   0.194   0.000
    1MMT    Sit  202   2.931   0.029   0.269
    1MMT    Sit  203   2.929   0.323   0.271
    1MMT     Op  204   2.911   0.041   0.110
    1MMT     Op  205   2.939   0.317   0.112
    1MMT     Oh  206   2.682   0.205   0.102
    1MMT     Ob  207   2.549   0.384   0.330
    1MMT     Ob  208   2.910   0.176   0.329
    1MMT     Ob  209   2.807   0.419   0.309
    1MMT      H  210   2.630   0.123   0.117
    1MMT    Alo  211   2.587   0.643   0.001
    1MMT    Sit  212   2.664   0.477   0.271
    1MMT    Sit  213   2.670   0.772   0.273
    1MMT     Op  214   2.647   0.489   0.112
    1MMT     Op  215   2.685   0.763   0.113
    1MMT     Oh  216   2.937   0.654   0.102
    1MMT     Ob  217   2.806   0.832   0.333
    1MMT     Ob  218   2.647   0.625   0.331
    1MMT     Ob  219   2.550   0.869   0.309
    1MMT      H  220   2.889   0.570   0.121
    1MMT    Alo  221   2.844   0.794   0.001
    1MMT    Sit  222   2.770   0.061   3.889
    1MMT    Sit  223   2.761   0.661   3.888
    1MMT     Op  224   2.790   0.048   4.048
    1MMT     Op  225   2.745   0.667   4.049
    1MMT     Oh  226   3.006   0.777   4.055
    1MMT     Ob  227   0.038   0.600   3.828
    1MMT     Ob  228   2.791   0.805   3.831
    1MMT     Ob  229   2.878   0.557   3.854
    1MMT      H  230   3.054   0.862   4.041
    1MMT    Alo  231   2.586   0.345   0.001
    1MMT    Sit  232   3.023   0.505   3.890
    1MMT    Sit  233   3.020   0.212   3.890
    1MMT     Op  234   3.037   0.494   4.049
    1MMT     Op  235   3.001   0.221   4.049
    1MMT     Oh  236   2.748   0.329   4.055
    1MMT     Ob  237   2.882   0.156   3.830
    1MMT     Ob  238   3.043   0.357   3.830
    1MMT     Ob  239   0.043   0.110   3.856
    1MMT      H  240   2.795   0.412   4.031
    1MMT    Alo  241   0.264   1.093   0.003
    1MMT    Sit  242   0.340   0.931   0.267
    1MMT    Sit  243   0.351   1.224   0.273
    1MMT    Omg  244   0.326   0.950   0.114
    1MMT     Op  245   0.366   1.217   0.113
    1MMT     Oh  246   0.102   1.108   0.108
    1MMT     Ob  247   3.069   1.285   0.334
    1MMT     Ob  248   0.325   1.079   0.333
    1MMT     Ob  249   0.231   1.324   0.307
    1MMT      H  250   0.055   1.022   0.119
    1MMT    Alo  251   0.011   1.541   4.158
    1MMT    Sit  252   0.087   1.378   0.270
    1MMT    Sit  253   0.093   1.672   0.267
    1MMT     Op  254   0.068   1.390   0.112
    1MMT    Omg  255   0.101   1.664   0.112
    1MMT   Ohmg  256   0.374   1.551   0.109
    1MMT     Ob  257   0.232   1.735   0.321
    1MMT     Ob  258   0.072   1.527   0.330
    1MMT     Ob  259   3.069   1.769   0.310
    1MMT      H  260   0.326   1.467   0.127
    1MMT    Mgo  261   0.271   1.691   4.158
    1MMT    Sit  262   0.184   0.964   3.894
    1MMT    Sit  263   0.181   1.558   3.892
    1MMT    Omg  264   0.202   0.955   4.047
    1MMT    Omg  265   0.161   1.563   4.045
    1MMT   Ohmg  266   0.442   1.668   4.050
    1MMT     Ob  267   0.561   1.503   3.835
    1MMT     Ob  268   0.210   1.707   3.832
    1MMT     Ob  269   0.302   1.460   3.856
    1MMT      H  270   0.492   1.751   4.032
    1MMT    Alo  271   0.006   1.243   0.002
    1MMT    Sit  272   0.448   1.407   3.892
    1MMT    Sit  273   0.437   1.114   3.891
    1MMT     Op  274   0.466   1.393   4.050
    1MMT     Op  275   0.424   1.122   4.049
    1MMT     Oh  276   0.171   1.232   4.060
    1MMT     Ob  277   0.299   1.058   3.832
    1MMT     Ob  278   0.466   1.259   3.831
    1MMT     Ob  279   0.557   1.014   3.856
    1MMT      H  280   0.217   1.317   4.042
    1MMT    Alo  281   0.781   1.091   0.002
    1MMT    Sit  282   0.857   0.927   0.269
    1MMT    Sit  283   0.866   1.221   0.272
    1MMT     Op  284   0.838   0.941   0.111
    1MMT     Op  285   0.881   1.212   0.113
    1MMT     Oh  286   0.618   1.107   0.105
    1MMT     Ob  287   0.489   1.283   0.329
    1MMT     Ob  288   0.840   1.075   0.330
    1MMT     Ob  289   0.747   1.322   0.306
    1MMT      H  290   0.569   1.024   0.127
    1MMT    Alo  291   0.527   1.541   0.001
    1MMT    Sit  292   0.602   1.377   0.269
    1MMT    Sit  293   0.609   1.673   0.267
    1MMT     Op  294   0.587   1.387   0.111
    1MMT     Op  295   0.624   1.669   0.110
    1MMT   Ohmg  296   0.868   1.562   0.113
    1MMT     Ob  297   0.747   1.735   0.328
    1MMT     Ob  298   0.586   1.528   0.326
    1MMT     Ob  299   0.491   1.774   0.305
    1MMT      H  300   0.827   1.472   0.114
    1MMT    Alo  301   0.785   1.690   0.003
    1MMT    Sit  302   0.702   0.958   3.891
    1MMT    Sit  303   0.702   1.557   3.894
    1MMT     Op  304   0.717   0.946   4.049
    1MMT     Op  305   0.685   1.565   4.052
    1MMT   Ohmg  306   0.935   1.679   4.055
    1MMT     Ob  307   1.078   1.498   3.838
    1MMT     Ob  308   0.727   1.704   3.835
    1MMT     Ob  309   0.818   1.457   3.860
    1MMT      H  310   0.986   1.758   4.026
    1MMT    Alo  311   0.523   1.242   0.002
    1MMT    Sit  312   0.964   1.400   3.897
    1MMT    Sit  313   0.953   1.107   3.890
    1MMT    Omg  314   0.978   1.383   4.050
    1MMT     Op  315   0.938   1.114   4.049
    1MMT     Oh  316   0.686   1.226   4.056
    1MMT     Ob  317   0.814   1.052   3.832
    1MMT     Ob  318   0.979   1.253   3.833
    1MMT     Ob  319   1.072   1.009   3.853
    1MMT      H  320   0.737   1.308   4.034
    1MMT    Alo  321   1.298   1.090   4.154
    1MMT    Sit  322   1.375   0.921   0.264
    1MMT    Sit  323   1.382   1.217   0.263
    1MMT     Op  324   1.358   0.934   0.106
    1MMT    Omg  325   1.390   1.211   0.109
    1MMT     Oh  326   1.134   1.101   0.099
    1MMT     Ob  327   1.002   1.282   0.332
    1MMT     Ob  328   1.365   1.070   0.323
    1MMT     Ob  329   1.260   1.308   0.309
    1MMT      H  330   1.089   1.015   0.118
    1MMT    Mgo  331   1.042   1.540   0.004
    1MMT    Sit  332   1.121   1.370   0.269
    1MMT    Sit  333   1.135   1.671   0.270
    1MMT    Omg  334   1.102   1.378   0.115
    1MMT    Omg  335   1.151   1.671   0.116
    1MMT     Oh  336   1.398   1.555   0.105
    1MMT     Ob  337   1.270   1.734   0.332
    1MMT     Ob  338   1.116   1.522   0.327
    1MMT     Ob  339   1.008   1.766   0.307
    1MMT      H  340   1.349   1.470   0.118
    1MMT    Alo  341   1.301   1.689   0.002
    1MMT    Sit  342   1.218   0.956   3.885
    1MMT    Sit  343   1.218   1.560   3.893
    1MMT     Op  344   1.238   0.944   4.044
    1MMT    Omg  345   1.209   1.571   4.048
    1MMT     Oh  346   1.465   1.678   4.058
    1MMT     Ob  347   1.596   1.502   3.829
    1MMT     Ob  348   1.242   1.706   3.831
    1MMT     Ob  349   1.337   1.462   3.853
    1MMT      H  350   1.515   1.760   4.038
    1MMT    Alo  351   1.039   1.240   0.002
    1MMT    Sit  352   1.481   1.407   3.892
    1MMT    Sit  353   1.466   1.109   3.888
    1MMT    Omg  354   1.499   1.402   4.045
    1MMT    Omg  355   1.449   1.111   4.042
    1MMT     Oh  356   1.200   1.226   4.052
    1MMT     Ob  357   1.330   1.053   3.825
    1MMT     Ob  358   1.497   1.257   3.833
    1MMT     Ob  359   1.588   1.010   3.851
    1MMT      H  360   1.249   1.310   4.039
    1MMT    Alo  361   1.813   1.089   0.000
    1MMT    Sit  362   1.888   0.924   0.267
    1MMT    Sit  363   1.897   1.220   0.267
    1MMT     Op  364   1.873   0.936   0.110
    1MMT     Op  365   1.915   1.211   0.111
    1MMT   Ohmg  366   1.662   1.101   0.109
    1MMT     Ob  367   1.519   1.284   0.321
    1MMT     Ob  368   1.871   1.075   0.327
    1MMT     Ob  369   1.779   1.320   0.305
    1MMT      H  370   1.609   1.019   0.122
    1MMT    Alo  371   1.560   1.539   4.158
    1MMT    Sit  372   1.634   1.380   0.264
    1MMT    Sit  373   1.646   1.672   0.267
    1MMT    Omg  374   1.622   1.398   0.112
    1MMT     Op  375   1.657   1.668   0.109
    1MMT   Ohmg  376   1.901   1.561   0.107
    1MMT     Ob  377   1.784   1.730   0.327
    1MMT     Ob  378   1.620   1.528   0.330
    1MMT     Ob  379   1.528   1.772   0.304
    1MMT      H  380   1.851   1.478   0.122
    1MMT    Alo  381   1.818   1.690   4.158
    1MMT    Sit  382   1.731   0.953   3.890
    1MMT    Sit  383   1.734   1.560   3.890
    1MMT     Op  384   1.748   0.941   4.049
    1MMT     Op  385   1.717   1.569   4.047
    1MMT   Ohmg  386   1.970   1.679   4.050
    1MMT     Ob  387   2.112   1.490   3.830
    1MMT     Ob  388   1.758   1.706   3.829
    1MMT     Ob  389   1.853   1.462   3.853
    1MMT      H  390   2.021   1.762   4.037
    1MMT    Mgo  391   1.558   1.240   4.156
    1MMT    Sit  392   1.994   1.398   3.894
    1MMT    Sit  393   1.982   1.105   3.892
    1MMT    Omg  394   2.010   1.381   4.046
    1MMT     Op  395   1.973   1.109   4.049
    1MMT   Ohmg  396   1.731   1.218   4.050
    1MMT     Ob  397   1.848   1.043   3.831
    1MMT     Ob  398   2.001   1.251   3.830
    1MMT     Ob  399   2.109   1.015   3.852
    1MMT      H  400   1.778   1.304   4.040
    1MMT    Alo  401   2.329   1.091   0.002
    1MMT    Sit  402   2.407   0.927   0.272
    1MMT    Sit  403   2.414   1.222   0.272
    1MMT     Op  404   2.391   0.940   0.113
    1MMT     Op  405   2.426   1.217   0.114
    1MMT     Oh  406   2.168   1.101   0.104
    1MMT     Ob  407   2.036   1.276   0.329
    1MMT     Ob  408   2.394   1.076   0.331
    1MMT     Ob  409   2.293   1.316   0.311
    1MMT      H  410   2.120   1.015   0.116
    1MMT    Mgo  411   2.074   1.538   0.000
    1MMT    Sit  412   2.149   1.371   0.267
    1MMT    Sit  413   2.164   1.670   0.267
    1MMT    Omg  414   2.134   1.377   0.114
    1MMT    Omg  415   2.183   1.667   0.112
    1MMT     Oh  416   2.432   1.554   0.104
    1MMT     Ob  417   2.302   1.727   0.329
    1MMT     Ob  418   2.135   1.523   0.326
    1MMT     Ob  419   2.044   1.770   0.302
    1MMT      H  420   2.379   1.473   0.120
    1MMT    Alo  421   2.332   1.689   4.156
    1MMT    Sit  422   2.253   0.957   3.891
    1MMT    Sit  423   2.250   1.556   3.889
    1MMT     Op  424   2.271   0.945   4.050
    1MMT    Omg  425   2.241   1.566   4.043
    1MMT     Oh  426   2.498   1.676   4.056
    1MMT     Ob  427   2.627   1.499   3.831
    1MMT     Ob  428   2.269   1.701   3.824
    1MMT     Ob  429   2.372   1.460   3.849
    1MMT      H  430   2.542   1.762   4.036
    1MMT    Alo  431   2.070   1.239   0.001
    1MMT    Sit  432   2.514   1.403   3.891
    1MMT    Sit  433   2.505   1.107   3.893
    1MMT     Op  434   2.527   1.396   4.050
    1MMT     Op  435   2.486   1.118   4.052
    1MMT     Oh  436   2.233   1.223   4.055
    1MMT     Ob  437   2.369   1.048   3.834
    1MMT     Ob  438   2.531   1.254   3.834
    1MMT     Ob  439   2.623   1.006   3.861
    1MMT      H  440   2.277   1.309   4.037
    1MMT    Mgo  441   2.843   1.092   0.004
    1MMT    Sit  442   2.922   0.923   0.270
    1MMT    Sit  443   2.935   1.223   0.271
    1MMT    Omg  444   2.905   0.931   0.117
    1MMT    Omg  445   2.951   1.223   0.117
    1MMT   Ohmg  446   2.670   1.112   0.112
    1MMT     Ob  447   2.551   1.284   0.333
    1MMT     Ob  448   2.911   1.075   0.331
    1MMT     Ob  449   2.809   1.317   0.312
    1MMT      H  450   2.625   1.026   0.124
    1MMT    Alo  451   2.591   1.540   4.158
    1MMT    Sit  452   2.667   1.375   0.269
    1MMT    Sit  453   2.677   1.669   0.268
    1MMT     Op  454   2.648   1.388   0.113
    1MMT     Op  455   2.693   1.661   0.110
    1MMT     Oh  456   2.942   1.554   0.102
    1MMT     Ob  457   2.813   1.730   0.329
    1MMT     Ob  458   2.654   1.524   0.329
    1MMT     Ob  459   2.557   1.767   0.301
    1MMT      H  460   2.898   1.466   0.115
    1MMT    Alo  461   2.850   1.688   4.157
    1MMT    Sit  462   2.769   0.952   3.895
    1MMT    Sit  463   2.763   1.559   3.888
    1MMT    Omg  464   2.784   0.934   4.049
    1MMT     Op  465   2.749   1.566   4.047
    1MMT     Oh  466   3.009   1.675   4.054
    1MMT     Ob  467   0.045   1.502   3.828
    1MMT     Ob  468   2.788   1.705   3.830
    1MMT     Ob  469   2.884   1.465   3.851
    1MMT      H  470   3.060   1.757   4.036
    1MMT    Alo  471   2.586   1.241   0.003
    1MMT    Sit  472   3.027   1.408   3.888
    1MMT    Sit  473   3.018   1.116   3.894
    1MMT     Op  474   3.044   1.397   4.048
    1MMT    Omg  475   3.010   1.125   4.048
    1MMT   Ohmg  476   2.737   1.231   4.055
    1MMT     Ob  477   2.881   1.052   3.836
    1MMT     Ob  478   3.040   1.261   3.830
    1MMT     Ob  479   0.041   1.020   3.852
    1MMT      H  480   2.786   1.312   4.028
    1MMT    Alo  481   0.275   1.989   4.156
    1MMT    Sit  482   0.346   1.832   0.265
    1MMT    Sit  483   0.358   2.123   0.267
    1MMT    Omg  484   0.335   1.850   0.111
    1MMT     Op  485   0.375   2.117   0.108
    1MMT     Oh  486   0.112   2.005   0.104
    1MMT     Ob  487   3.078   2.173   0.329
    1MMT     Ob  488   0.332   1.980   0.328
    1MMT     Ob  489   0.241   2.224   0.300
    1MMT      H  490   0.068   1.919   0.121
    1MMT    Alo  491   0.016   2.435   0.001
    1MMT    Sit  492   0.093   2.272   0.270
    1MMT    Sit  493   0.102   2.565   0.272
    1MMT     Op  494   0.074   2.284   0.111
    1MMT     Op  495   0.117   2.557   0.112
    1MMT     Oh  496   0.373   2.450   0.103
    1MMT     Ob  497   0.241   2.621   0.329
    1MMT     Ob  498   0.073   2.420   0.329
    1MMT     Ob  499   3.081   2.665   0.307
    1MMT      H  500   0.325   2.368   0.130
    1MMT    Alo  501   0.275   2.585   4.158
    1MMT    Sit  502   0.197   1.858   3.891
    1MMT    Sit  503   0.190   2.453   3.889
    1MMT    Omg  504   0.213   1.853   4.044
    1MMT     Op  505   0.177   2.461   4.048
    1MMT     Oh  506   0.438   2.571   4.055
    1MMT     Ob  507   0.569   2.400   3.830
    1MMT     Ob  508   0.212   2.598   3.828
    1MMT     Ob  509   0.310   2.355   3.855
    1MMT      H  510   0.483   2.656   4.033
    1MMT    Alo  511   0.016   2.137   0.001
    1MMT    Sit  512   0.457   2.304   3.888
    1MMT    Sit  513   0.448   2.010   3.886
    1MMT     Op  514   0.476   2.291   4.047
    1MMT     Op  515   0.434   2.019   4.045
    1MMT     Oh  516   0.179   2.127   4.056
    1MMT     Ob  517   0.311   1.951   3.826
    1MMT     Ob  518   0.475   2.155   3.829
    1MMT     Ob  519   0.567   1.909   3.852
    1MMT      H  520   0.226   2.210   4.031
    1MMT    Alo  521   0.790   1.988   0.001
    1MMT    Sit  522   0.867   1.825   0.269
    1MMT    Sit  523   0.877   2.119   0.272
    1MMT     Op  524   0.846   1.840   0.112
    1MMT     Op  525   0.890   2.112   0.112
    1MMT     Oh  526   0.626   2.005   0.104
    1MMT     Ob  527   0.498   2.178   0.327
    1MMT     Ob  528   0.850   1.974   0.330
    1MMT     Ob  529   0.756   2.218   0.306
    1MMT      H  530   0.577   1.921   0.119
    1MMT    Alo  531   0.535   2.437   4.158
    1MMT    Sit  532   0.612   2.273   0.268
    1MMT    Sit  533   0.619   2.568   0.271
    1MMT     Op  534   0.594   2.286   0.110
    1MMT     Op  535   0.633   2.560   0.112
    1MMT     Oh  536   0.884   2.449   0.102
    1MMT     Ob  537   0.756   2.624   0.331
    1MMT     Ob  538   0.595   2.421   0.330
    1MMT     Ob  539   0.498   2.664   0.306
    1MMT      H  540   0.840   2.364   0.124
    1MMT    Alo  541   0.794   2.585   0.001
    1MMT    Sit  542   0.712   1.854   3.891
    1MMT    Sit  543   0.708   2.456   3.888
    1MMT     Op  544   0.725   1.846   4.050
    1MMT     Op  545   0.692   2.463   4.048
    1MMT     Oh  546   0.954   2.570   4.055
    1MMT     Ob  547   1.085   2.395   3.830
    1MMT     Ob  548   0.734   2.601   3.832
    1MMT     Ob  549   0.825   2.354   3.855
    1MMT      H  550   1.006   2.650   4.032
    1MMT    Alo  551   0.533   2.140   4.157
    1MMT    Sit  552   0.971   2.301   3.888
    1MMT    Sit  553   0.963   2.006   3.888
    1MMT     Op  554   0.988   2.287   4.049
    1MMT     Op  555   0.949   2.015   4.048
    1MMT     Oh  556   0.695   2.125   4.056
    1MMT     Ob  557   0.825   1.948   3.832
    1MMT     Ob  558   0.988   2.152   3.830
    1MMT     Ob  559   1.083   1.910   3.853
    1MMT      H  560   0.744   2.205   4.027
    1MMT    Alo  561   1.307   1.988   0.002
    1MMT    Sit  562   1.383   1.826   0.270
    1MMT    Sit  563   1.393   2.121   0.272
    1MMT     Op  564   1.365   1.840   0.112
    1MMT     Op  565   1.407   2.112   0.112
    1MMT     Oh  566   1.144   2.004   0.104
    1MMT     Ob  567   1.013   2.179   0.329
    1MMT     Ob  568   1.366   1.975   0.329
    1MMT     Ob  569   1.273   2.219   0.305
    1MMT      H  570   1.101   1.918   0.126
    1MMT    Alo  571   1.052   2.436   0.001
    1MMT    Sit  572   1.128   2.273   0.271
    1MMT    Sit  573   1.134   2.566   0.269
    1MMT     Op  574   1.107   2.284   0.112
    1MMT    Omg  575   1.142   2.557   0.114
    1MMT   Ohmg  576   1.415   2.446   0.109
    1MMT     Ob  577   1.273   2.627   0.325
    1MMT     Ob  578   1.110   2.421   0.330
    1MMT     Ob  579   1.014   2.665   0.310
    1MMT      H  580   1.372   2.364   0.140
    1MMT    Mgo  581   1.311   2.585   0.001
    1MMT    Sit  582   1.227   1.853   3.890
    1MMT    Sit  583   1.220   2.454   3.893
    1MMT     Op  584   1.245   1.844   4.049
    1MMT    Omg  585   1.202   2.455   4.047
    1MMT   Ohmg  586   1.482   2.562   4.050
    1MMT     Ob  587   1.602   2.395   3.833
    1MMT     Ob  588   1.250   2.601   3.835
    1MMT     Ob  589   1.343   2.355   3.854
    1MMT      H  590   1.531   2.645   4.031
    1MMT    Alo  591   1.048   2.138   0.001
    1MMT    Sit  592   1.489   2.302   3.893
    1MMT    Sit  593   1.480   2.006   3.891
    1MMT     Op  594   1.506   2.286   4.050
    1MMT     Op  595   1.465   2.013   4.049
    1MMT     Oh  596   1.211   2.125   4.056
    1MMT     Ob  597   1.342   1.948   3.832
    1MMT     Ob  598   1.503   2.152   3.832
    1MMT     Ob  599   1.599   1.910   3.852
    1MMT      H  600   1.258   2.211   4.041
    1MMT    Alo  601   1.822   1.988   4.157
    1MMT    Sit  602   1.899   1.824   0.267
    1MMT    Sit  603   1.908   2.118   0.271
    1MMT     Op  604   1.878   1.837   0.109
    1MMT     Op  605   1.921   2.108   0.109
    1MMT     Oh  606   1.659   2.004   0.103
    1MMT     Ob  607   1.531   2.178   0.329
    1MMT     Ob  608   1.879   1.971   0.327
    1MMT     Ob  609   1.788   2.217   0.304
    1MMT      H  610   1.614   1.921   0.131
    1MMT    Alo  611   1.568   2.436   0.003
    1MMT    Sit  612   1.645   2.273   0.271
    1MMT    Sit  613   1.652   2.568   0.271
    1MMT     Op  614   1.627   2.283   0.111
    1MMT     Op  615   1.666   2.562   0.112
    1MMT   Ohmg  616   1.911   2.460   0.110
    1MMT     Ob  617   1.790   2.626   0.330
    1MMT     Ob  618   1.627   2.422   0.329
    1MMT     Ob  619   1.532   2.669   0.307
    1MMT      H  620   1.867   2.378   0.142
    1MMT    Alo  621   1.825   2.585   0.003
    1MMT    Sit  622   1.743   1.854   3.888
    1MMT    Sit  623   1.741   2.454   3.892
    1MMT     Op  624   1.758   1.845   4.046
    1MMT     Op  625   1.727   2.459   4.051
    1MMT   Ohmg  626   1.977   2.578   4.052
    1MMT     Ob  627   2.119   2.395   3.834
    1MMT     Ob  628   1.764   2.600   3.834
    1MMT     Ob  629   1.859   2.354   3.854
    1MMT      H  630   2.028   2.658   4.032
    1MMT    Alo  631   1.566   2.139   0.002
    1MMT    Sit  632   2.005   2.298   3.891
    1MMT    Sit  633   1.994   2.006   3.886
    1MMT    Omg  634   2.019   2.279   4.045
    1MMT     Op  635   1.979   2.011   4.045
    1MMT     Oh  636   1.728   2.124   4.054
    1MMT     Ob  637   1.856   1.947   3.826
    1MMT     Ob  638   2.019   2.150   3.826
    1MMT     Ob  639   2.113   1.907   3.848
    1MMT      H  640   1.780   2.207   4.040
    1MMT    Alo  641   2.337   1.987   4.155
    1MMT    Sit  642   2.412   1.822   0.265
    1MMT    Sit  643   2.420   2.117   0.265
    1MMT     Op  644   2.394   1.835   0.108
    1MMT    Omg  645   2.430   2.106   0.112
    1MMT     Oh  646   2.174   1.998   0.097
    1MMT     Ob  647   2.046   2.172   0.327
    1MMT     Ob  648   2.403   1.970   0.329
    1MMT     Ob  649   2.303   2.213   0.307
    1MMT      H  650   2.127   1.916   0.122
    1MMT    Mgo  651   2.082   2.436   0.001
    1MMT    Sit  652   2.158   2.268   0.267
    1MMT    Sit  653   2.173   2.567   0.268
    1MMT    Omg  654   2.142   2.275   0.112
    1MMT    Omg  655   2.191   2.567   0.114
    1MMT     Oh  656   2.438   2.451   0.105
    1MMT     Ob  657   2.309   2.626   0.332
    1MMT     Ob  658   2.146   2.420   0.325
    1MMT     Ob  659   2.051   2.667   0.305
    1MMT      H  660   2.387   2.368   0.122
    1MMT    Alo  661   2.341   2.585   0.001
    1MMT    Sit  662   2.256   1.851   3.885
    1MMT    Sit  663   2.258   2.457   3.890
    1MMT     Op  664   2.274   1.838   4.043
    1MMT    Omg  665   2.249   2.467   4.045
    1MMT     Oh  666   2.506   2.575   4.059
    1MMT     Ob  667   2.636   2.395   3.827
    1MMT     Ob  668   2.279   2.604   3.829
    1MMT     Ob  669   2.377   2.360   3.850
    1MMT      H  670   2.558   2.657   4.041
    1MMT    Alo  671   2.080   2.138   4.157
    1MMT    Sit  672   2.520   2.305   3.891
    1MMT    Sit  673   2.506   2.005   3.889
    1MMT    Omg  674   2.538   2.297   4.044
    1MMT    Omg  675   2.488   2.006   4.043
    1MMT     Oh  676   2.242   2.122   4.051
    1MMT     Ob  677   2.371   1.943   3.824
    1MMT     Ob  678   2.533   2.152   3.831
    1MMT     Ob  679   2.630   1.910   3.853
    1MMT      H  680   2.290   2.208   4.040
    1MMT    Alo  681   2.854   1.987   0.001
    1MMT    Sit  682   2.927   1.824   0.269
    1MMT    Sit  683   2.938   2.119   0.270
    1MMT     Op  684   2.913   1.834   0.111
    1MMT     Op  685   2.956   2.110   0.111
    1MMT   Ohmg  686   2.702   1.996   0.108
    1MMT     Ob  687   2.562   2.177   0.324
    1MMT     Ob  688   2.909   1.973   0.330
    1MMT     Ob  689   2.821   2.220   0.305
    1MMT      H  690   2.647   1.915   0.119
    1MMT    Alo  691   2.599   2.434   0.000
    1MMT    Sit  692   2.674   2.277   0.266
    1MMT    Sit  693   2.684   2.569   0.272
    1MMT    Omg  694   2.661   2.293   0.113
    1MMT     Op  695   2.700   2.560   0.112
    1MMT     Oh  696   2.952   2.448   0.102
    1MMT     Ob  697   2.823   2.624   0.331
    1MMT     Ob  698   2.658   2.423   0.331
    1MMT     Ob  699   2.566   2.670   0.306
    1MMT      H  700   2.898   2.368   0.122
    1MMT    Alo  701   2.855   2.586   0.000
    1MMT    Sit  702   2.773   1.854   3.891
    1MMT    Sit  703   2.771   2.454   3.887
    1MMT     Op  704   2.792   1.839   4.049
    1MMT     Op  705   2.758   2.461   4.047
    1MMT     Oh  706   3.022   2.569   4.054
    1MMT     Ob  707   0.052   2.395   3.832
    1MMT     Ob  708   2.798   2.599   3.829
    1MMT     Ob  709   2.891   2.355   3.853
    1MMT      H  710   3.064   2.657   4.038
    1MMT    Mgo  711   2.597   2.136   4.157
    1MMT    Sit  712   3.034   2.301   3.890
    1MMT    Sit  713   3.028   2.006   3.889
    1MMT     Op  714   3.053   2.288   4.048
    1MMT     Op  715   3.018   2.011   4.049
    1MMT   Ohmg  716   2.772   2.114   4.051
    1MMT     Ob  717   2.891   1.946   3.831
    1MMT     Ob  718   3.050   2.152   3.830
    1MMT     Ob  719   0.053   1.912   3.849
    1MMT      H  720   2.813   2.202   4.035
    1MMT    Alo  721   0.279   2.883   4.155
    1MMT    Sit  722   0.353   2.717   0.268
    1MMT    Sit  723   0.360   3.010   0.263
    1MMT     Op  724   0.335   2.727   0.110
    1MMT    Omg  725   0.372   3.000   0.110
    1MMT     Oh  726   0.115   2.898   0.101
    1MMT     Ob  727   3.083   3.073   0.329
    1MMT     Ob  728   0.334   2.866   0.327
    1MMT     Ob  729   0.243   3.114   0.297
    1MMT      H  730   0.063   2.816   0.120
    1MMT    Alo  731   0.019   3.331   4.154
    1MMT    Sit  732   0.097   3.167   0.265
    1MMT    Sit  733   0.101   3.462   0.266
    1MMT     Op  734   0.079   3.180   0.107
    1MMT     Op  735   0.116   3.452   0.108
    1MMT     Oh  736   0.373   3.343   0.100
    1MMT     Ob  737   0.239   3.517   0.327
    1MMT     Ob  738   0.077   3.316   0.325
    1MMT     Ob  739   3.077   3.561   0.302
    1MMT      H  740   0.329   3.256   0.113
    1MMT    Alo  741   0.273   3.483   4.154
    1MMT    Sit  742   0.199   2.748   3.886
    1MMT    Sit  743   0.192   3.350   3.883
    1MMT     Op  744   0.215   2.735   4.046
    1MMT     Op  745   0.176   3.356   4.044
    1MMT     Oh  746   0.437   3.471   4.052
    1MMT     Ob  747   0.574   3.289   3.823
    1MMT     Ob  748   0.211   3.496   3.824
    1MMT     Ob  749   0.315   3.256   3.848
    1MMT      H  750   0.480   3.558   4.040
    1MMT    Alo  751   0.018   3.033   4.155
    1MMT    Sit  752   0.458   3.198   3.889
    1MMT    Sit  753   0.448   2.899   3.888
    1MMT    Omg  754   0.476   3.193   4.042
    1MMT    Omg  755   0.430   2.901   4.042
    1MMT     Oh  756   0.184   3.021   4.053
    1MMT     Ob  757   0.313   2.839   3.825
    1MMT     Ob  758   0.472   3.047   3.831
    1MMT     Ob  759   0.573   2.804   3.853
    1MMT      H  760   0.235   3.104   4.038
    1MMT    Alo  761   0.797   2.883   0.002
    1MMT    Sit  762   0.871   2.719   0.272
    1MMT    Sit  763   0.878   3.013   0.272
    1MMT     Op  764   0.856   2.729   0.113
    1MMT     Op  765   0.897   3.005   0.114
    1MMT   Ohmg  766   0.645   2.893   0.107
    1MMT     Ob  767   0.500   3.071   0.322
    1MMT     Ob  768   0.852   2.868   0.331
    1MMT     Ob  769   0.759   3.115   0.305
    1MMT      H  770   0.596   2.810   0.128
    1MMT    Alo  771   0.535   3.330   4.154
    1MMT    Sit  772   0.613   3.169   0.263
    1MMT    Sit  773   0.616   3.461   0.263
    1MMT    Omg  774   0.600   3.187   0.110
    1MMT     Op  775   0.631   3.456   0.105
    1MMT     Oh  776   0.884   3.347   0.099
    1MMT     Ob  777   0.753   3.519   0.323
    1MMT     Ob  778   0.593   3.316   0.326
    1MMT     Ob  779   0.497   3.558   0.303
    1MMT      H  780   0.837   3.262   0.118
    1MMT    Alo  781   0.788   3.483   4.153
    1MMT    Sit  782   0.717   2.749   3.891
    1MMT    Sit  783   0.708   3.352   3.884
    1MMT     Op  784   0.736   2.736   4.050
    1MMT     Op  785   0.693   3.362   4.042
    1MMT     Oh  786   0.951   3.471   4.051
    1MMT     Ob  787   1.087   3.288   3.827
    1MMT     Ob  788   0.722   3.499   3.821
    1MMT     Ob  789   0.830   3.256   3.849
    1MMT      H  790   1.004   3.553   4.038
    1MMT    Mgo  791   0.539   3.031   4.155
    1MMT    Sit  792   0.973   3.197   3.888
    1MMT    Sit  793   0.970   2.903   3.892
    1MMT     Op  794   0.988   3.186   4.048
    1MMT     Op  795   0.957   2.908   4.052
    1MMT   Ohmg  796   0.713   3.012   4.050
    1MMT     Ob  797   0.832   2.842   3.833
    1MMT     Ob  798   0.989   3.049   3.833
    1MMT     Ob  799   1.090   2.807   3.857
    1MMT      H  800   0.761   3.096   4.034
    1MMT    Alo  801   1.312   2.884   0.003
    1MMT    Sit  802   1.388   2.724   0.266
    1MMT    Sit  803   1.395   3.017   0.271
    1MMT    Omg  804   1.374   2.743   0.114
    1MMT     Op  805   1.411   3.011   0.113
    1MMT     Oh  806   1.150   2.899   0.108
    1MMT     Ob  807   1.016   3.071   0.332
    1MMT     Ob  808   1.368   2.873   0.332
    1MMT     Ob  809   1.275   3.117   0.307
    1MMT      H  810   1.107   2.812   0.124
    1MMT    Alo  811   1.050   3.332   4.157
    1MMT    Sit  812   1.128   3.167   0.272
    1MMT    Sit  813   1.130   3.460   0.266
    1MMT     Op  814   1.108   3.177   0.113
    1MMT    Omg  815   1.140   3.449   0.112
    1MMT   Ohmg  816   1.417   3.340   0.107
    1MMT     Ob  817   1.269   3.519   0.326
    1MMT     Ob  818   1.107   3.316   0.331
    1MMT     Ob  819   1.009   3.560   0.304
    1MMT      H  820   1.369   3.257   0.127
    1MMT    Mgo  821   1.308   3.480   4.157
    1MMT    Sit  822   1.234   2.753   3.894
    1MMT    Sit  823   1.221   3.348   3.891
    1MMT    Omg  824   1.252   2.746   4.048
    1MMT    Omg  825   1.201   3.350   4.045
    1MMT   Ohmg  826   1.482   3.461   4.050
    1MMT     Ob  827   1.603   3.292   3.830
    1MMT     Ob  828   1.243   3.497   3.833
    1MMT     Ob  829   1.344   3.251   3.856
    1MMT      H  830   1.528   3.547   4.034
    1MMT    Alo  831   1.052   3.032   0.004
    1MMT    Sit  832   1.490   3.197   3.890
    1MMT    Sit  833   1.484   2.902   3.890
    1MMT     Op  834   1.510   3.185   4.049
    1MMT     Op  835   1.470   2.913   4.050
    1MMT     Oh  836   1.213   3.023   4.060
    1MMT     Ob  837   1.347   2.846   3.831
    1MMT     Ob  838   1.511   3.048   3.834
    1MMT     Ob  839   1.603   2.803   3.856
    1MMT      H  840   1.260   3.107   4.038
    1MMT    Alo  841   1.826   2.883   0.001
    1MMT    Sit  842   1.905   2.718   0.269
    1MMT    Sit  843   1.912   3.013   0.270
    1MMT     Op  844   1.884   2.734   0.112
    1MMT     Op  845   1.926   3.005   0.111
    1MMT     Oh  846   1.664   2.899   0.105
    1MMT     Ob  847   1.533   3.074   0.330
    1MMT     Ob  848   1.887   2.868   0.330
    1MMT     Ob  849   1.792   3.113   0.305
    1MMT      H  850   1.616   2.814   0.124
    1MMT    Alo  851   1.568   3.332   4.156
    1MMT    Sit  852   1.647   3.166   0.267
    1MMT    Sit  853   1.649   3.462   0.266
    1MMT     Op  854   1.631   3.176   0.110
    1MMT     Op  855   1.667   3.453   0.108
    1MMT     Oh  856   1.919   3.346   0.099
    1MMT     Ob  857   1.787   3.518   0.325
    1MMT     Ob  858   1.627   3.316   0.326
    1MMT     Ob  859   1.529   3.562   0.303
    1MMT      H  860   1.876   3.264   0.131
    1MMT    Alo  861   1.822   3.481   4.156
    1MMT    Sit  862   1.747   2.748   3.891
    1MMT    Sit  863   1.740   3.351   3.886
    1MMT     Op  864   1.764   2.740   4.050
    1MMT     Op  865   1.729   3.357   4.046
    1MMT     Oh  866   1.985   3.471   4.052
    1MMT     Ob  867   2.118   3.287   3.823
    1MMT     Ob  868   1.759   3.498   3.828
    1MMT     Ob  869   1.861   3.255   3.848
    1MMT      H  870   2.038   3.554   4.042
    1MMT    Alo  871   1.569   3.033   0.001
    1MMT    Sit  872   2.004   3.196   3.886
    1MMT    Sit  873   1.998   2.901   3.887
    1MMT     Op  874   2.020   3.185   4.045
    1MMT     Op  875   1.984   2.911   4.047
    1MMT     Oh  876   1.731   3.019   4.056
    1MMT     Ob  877   1.861   2.842   3.831
    1MMT     Ob  878   2.017   3.048   3.827
    1MMT     Ob  879   2.120   2.808   3.852
    1MMT      H  880   1.779   3.102   4.034
    1MMT    Alo  881   2.342   2.884   0.001
    1MMT    Sit  882   2.420   2.722   0.271
    1MMT    Sit  883   2.426   3.016   0.270
    1MMT     Op  884   2.403   2.735   0.112
    1MMT     Op  885   2.438   3.010   0.111
    1MMT     Oh  886   2.180   2.898   0.102
    1MMT     Ob  887   2.049   3.071   0.328
    1MMT     Ob  888   2.401   2.871   0.330
    1MMT     Ob  889   2.307   3.116   0.305
    1MMT      H  890   2.137   2.812   0.125
    1MMT    Alo  891   2.083   3.332   4.155
    1MMT    Sit  892   2.161   3.167   0.268
    1MMT    Sit  893   2.163   3.460   0.264
    1MMT     Op  894   2.141   3.176   0.109
    1MMT    Omg  895   2.173   3.450   0.109
    1MMT   Ohmg  896   2.449   3.344   0.107
    1MMT     Ob  897   2.305   3.517   0.318
    1MMT     Ob  898   2.139   3.315   0.324
    1MMT     Ob  899   2.045   3.563   0.300
    1MMT      H  900   2.403   3.262   0.134
    1MMT    Mgo  901   2.340   3.481   4.154
    1MMT    Sit  902   2.264   2.750   3.889
    1MMT    Sit  903   2.252   3.349   3.888
    1MMT     Op  904   2.283   2.741   4.048
    1MMT    Omg  905   2.233   3.350   4.041
    1MMT   Ohmg  906   2.516   3.462   4.049
    1MMT     Ob  907   2.636   3.291   3.831
    1MMT     Ob  908   2.271   3.497   3.829
    1MMT     Ob  909   2.377   3.255   3.850
    1MMT      H  910   2.561   3.546   4.028
    1MMT    Alo  911   2.083   3.032   4.157
    1MMT    Sit  912   2.521   3.200   3.893
    1MMT    Sit  913   2.515   2.902   3.891
    1MMT     Op  914   2.536   3.188   4.049
    1MMT     Op  915   2.497   2.911   4.049
    1MMT     Oh  916   2.244   3.021   4.054
    1MMT     Ob  917   2.377   2.846   3.830
    1MMT     Ob  918   2.537   3.050   3.832
    1MMT     Ob  919   2.635   2.805   3.855
    1MMT      H  920   2.292   3.107   4.042
    1MMT    Mgo  921   2.856   2.885   4.158
    1MMT    Sit  922   2.935   2.718   0.267
    1MMT    Sit  923   2.945   3.015   0.266
    1MMT    Omg  924   2.919   2.724   0.112
    1MMT    Omg  925   2.964   3.015   0.112
    1MMT   Ohmg  926   2.684   2.906   0.108
    1MMT     Ob  927   2.564   3.075   0.329
    1MMT     Ob  928   2.920   2.869   0.325
    1MMT     Ob  929   2.825   3.115   0.305
    1MMT      H  930   2.639   2.821   0.130
    1MMT    Alo  931   2.600   3.332   4.158
    1MMT    Sit  932   2.678   3.167   0.267
    1MMT    Sit  933   2.683   3.461   0.267
    1MMT     Op  934   2.661   3.179   0.110
    1MMT     Op  935   2.701   3.454   0.109
    1MMT     Oh  936   2.954   3.346   0.102
    1MMT     Ob  937   2.820   3.519   0.328
    1MMT     Ob  938   2.660   3.316   0.328
    1MMT     Ob  939   2.563   3.563   0.302
    1MMT      H  940   2.909   3.261   0.121
    1MMT    Alo  941   2.855   3.481   4.157
    1MMT    Sit  942   2.780   2.745   3.892
    1MMT    Sit  943   2.773   3.352   3.887
    1MMT    Omg  944   2.796   2.728   4.045
    1MMT     Op  945   2.762   3.356   4.047
    1MMT     Oh  946   3.019   3.471   4.055
    1MMT     Ob  947   0.057   3.290   3.824
    1MMT     Ob  948   2.791   3.499   3.830
    1MMT     Ob  949   2.895   3.258   3.847
    1MMT      H  950   3.069   3.554   4.036
    1MMT    Alo  951   2.599   3.033   0.001
    1MMT    Sit  952   3.038   3.198   3.885
    1MMT    Sit  953   3.032   2.905   3.889
    1MMT     Op  954   3.055   3.189   4.043
    1MMT    Omg  955   3.024   2.915   4.043
    1MMT   Ohmg  956   2.749   3.025   4.050
    1MMT     Ob  957   2.894   2.842   3.832
    1MMT     Ob  958   3.052   3.050   3.826
    1MMT     Ob  959   0.056   2.805   3.849
    1MMT      H  960   2.798   3.107   4.030
    2MMT    Alo  961   0.441   0.495   2.077
    2MMT    Sit  962   0.522   0.330   2.344
    2MMT    Sit  963   0.522   0.624   2.349
    2MMT     Op  964   0.503   0.342   2.186
    2MMT     Op  965   0.535   0.616   2.189
    2MMT     Oh  966   0.276   0.508   2.179
    2MMT     Ob  967   0.141   0.686   2.408
    2MMT     Ob  968   0.503   0.476   2.405
    2MMT     Ob  969   0.400   0.719   2.385
    2MMT      H  970   0.226   0.427   2.207
    2MMT    Alo  971   0.178   0.943   2.082
    2MMT    Sit  972   0.257   0.777   2.350
    2MMT    Sit  973   0.265   1.072   2.350
    2MMT     Op  974   0.239   0.790   2.190
    2MMT     Op  975   0.273   1.068   2.192
    2MMT   Ohmg  976   0.519   0.964   2.187
    2MMT     Ob  977   0.400   1.133   2.410
    2MMT     Ob  978   0.243   0.927   2.409
    2MMT     Ob  979   0.144   1.169   2.395
    2MMT      H  980   0.475   0.880   2.211
    2MMT    Alo  981   0.435   1.093   2.080
    2MMT    Sit  982   0.363   0.362   1.808
    2MMT    Sit  983   0.354   0.962   1.812
    2MMT     Op  984   0.382   0.349   1.965
    2MMT     Op  985   0.334   0.968   1.970
    2MMT   Ohmg  986   0.585   1.083   1.972
    2MMT     Ob  987   0.731   0.903   1.755
    2MMT     Ob  988   0.374   1.105   1.751
    2MMT     Ob  989   0.472   0.862   1.774
    2MMT      H  990   0.634   1.167   1.956
    2MMT    Alo  991   0.180   0.645   2.080
    2MMT    Sit  992   0.620   0.807   1.814
    2MMT    Sit  993   0.614   0.514   1.808
    2MMT    Omg  994   0.631   0.787   1.966
    2MMT     Op  995   0.595   0.520   1.967
    2MMT     Oh  996   0.342   0.632   1.974
    2MMT     Ob  997   0.474   0.457   1.747
    2MMT     Ob  998   0.633   0.659   1.746
    2MMT     Ob  999   0.733   0.416   1.773
    2MMT      H 1000   0.395   0.715   1.965
    2MMT    Alo 1001   0.956   0.495   2.080
    2MMT    Sit 1002   1.040   0.333   2.345
    2MMT    Sit 1003   1.037   0.626   2.354
    2MMT    Omg 1004   1.023   0.352   2.192
    2MMT     Op 1005   1.052   0.622   2.193
    2MMT     Oh 1006   0.791   0.505   2.181
    2MMT     Ob 1007   0.656   0.685   2.409
    2MMT     Ob 1008   1.018   0.479   2.411
    2MMT     Ob 1009   0.914   0.720   2.388
    2MMT      H 1010   0.748   0.418   2.198
    2MMT    Mgo 1011   0.693   0.944   2.080
    2MMT    Sit 1012   0.772   0.777   2.347
    2MMT    Sit 1013   0.784   1.075   2.347
    2MMT    Omg 1014   0.754   0.782   2.192
    2MMT    Omg 1015   0.803   1.073   2.193
    2MMT     Oh 1016   1.051   0.955   2.183
    2MMT     Ob 1017   0.921   1.133   2.410
    2MMT     Ob 1018   0.757   0.927   2.404
    2MMT     Ob 1019   0.661   1.172   2.385
    2MMT      H 1020   0.999   0.873   2.201
    2MMT    Alo 1021   0.953   1.092   2.080
    2MMT    Sit 1022   0.881   0.364   1.812
    2MMT    Sit 1023   0.872   0.963   1.812
    2MMT    Omg 1024   0.899   0.356   1.966
    2MMT    Omg 1025   0.861   0.974   1.967
    2MMT     Oh 1026   1.119   1.077   1.977
    2MMT     Ob 1027   1.248   0.906   1.751
    2MMT     Ob 1028   0.895   1.109   1.751
    2MMT     Ob 1029   0.991   0.862   1.778
    2MMT      H 1030   1.162   1.160   1.948
    2MMT    Alo 1031   0.695   0.646   2.080
    2MMT    Sit 1032   1.136   0.810   1.810
    2MMT    Sit 1033   1.129   0.516   1.813
    2MMT     Op 1034   1.156   0.799   1.970
    2MMT     Op 1035   1.111   0.527   1.971
    2MMT     Oh 1036   0.855   0.632   1.977
    2MMT     Ob 1037   0.991   0.461   1.751
    2MMT     Ob 1038   1.158   0.660   1.753
    2MMT     Ob 1039   1.247   0.413   1.784
    2MMT      H 1040   0.900   0.718   1.955
    2MMT    Alo 1041   1.472   0.494   2.084
    2MMT    Sit 1042   1.557   0.329   2.350
    2MMT    Sit 1043   1.553   0.622   2.352
    2MMT     Op 1044   1.535   0.343   2.193
    2MMT    Omg 1045   1.562   0.615   2.197
    2MMT     Oh 1046   1.304   0.507   2.185
    2MMT     Ob 1047   1.172   0.688   2.411
    2MMT     Ob 1048   1.539   0.476   2.413
    2MMT     Ob 1049   1.430   0.718   2.391
    2MMT      H 1050   1.255   0.423   2.203
    2MMT    Alo 1051   1.212   0.943   2.079
    2MMT    Sit 1052   1.289   0.776   2.352
    2MMT    Sit 1053   1.297   1.071   2.347
    2MMT     Op 1054   1.273   0.789   2.192
    2MMT     Op 1055   1.311   1.066   2.189
    2MMT     Oh 1056   1.564   0.959   2.184
    2MMT     Ob 1057   1.436   1.131   2.405
    2MMT     Ob 1058   1.276   0.927   2.408
    2MMT     Ob 1059   1.179   1.171   2.388
    2MMT      H 1060   1.520   0.871   2.197
    2MMT    Alo 1061   1.470   1.093   2.077
    2MMT    Sit 1062   1.393   0.359   1.817
    2MMT    Sit 1063   1.387   0.963   1.808
    2MMT     Op 1064   1.411   0.347   1.975
    2MMT     Op 1065   1.372   0.972   1.968
    2MMT     Oh 1066   1.631   1.080   1.977
    2MMT     Ob 1067   1.764   0.903   1.751
    2MMT     Ob 1068   1.413   1.108   1.750
    2MMT     Ob 1069   1.505   0.862   1.776
    2MMT      H 1070   1.681   1.161   1.951
    2MMT    Alo 1071   1.212   0.645   2.082
    2MMT    Sit 1072   1.651   0.809   1.815
    2MMT    Sit 1073   1.642   0.512   1.818
    2MMT    Omg 1074   1.669   0.805   1.970
    2MMT    Omg 1075   1.622   0.514   1.972
    2MMT     Oh 1076   1.372   0.628   1.978
    2MMT     Ob 1077   1.504   0.455   1.755
    2MMT     Ob 1078   1.671   0.658   1.761
    2MMT     Ob 1079   1.762   0.409   1.783
    2MMT      H 1080   1.423   0.708   1.951
    2MMT    Alo 1081   1.990   0.494   2.080
    2MMT    Sit 1082   2.075   0.330   2.348
    2MMT    Sit 1083   2.070   0.625   2.349
    2MMT     Op 1084   2.061   0.341   2.189
    2MMT     Op 1085   2.089   0.618   2.190
    2MMT   Ohmg 1086   1.840   0.500   2.189
    2MMT     Ob 1087   1.690   0.690   2.408
    2MMT     Ob 1088   2.055   0.478   2.408
    2MMT     Ob 1089   1.950   0.723   2.386
    2MMT      H 1090   1.788   0.418   2.203
    2MMT    Alo 1091   1.729   0.942   2.080
    2MMT    Sit 1092   1.805   0.783   2.348
    2MMT    Sit 1093   1.812   1.076   2.348
    2MMT    Omg 1094   1.792   0.801   2.195
    2MMT     Op 1095   1.827   1.068   2.189
    2MMT     Oh 1096   2.080   0.954   2.180
    2MMT     Ob 1097   1.948   1.138   2.406
    2MMT     Ob 1098   1.791   0.932   2.412
    2MMT     Ob 1099   1.692   1.174   2.383
    2MMT      H 1100   2.026   0.872   2.191
    2MMT    Alo 1101   1.984   1.094   2.076
    2MMT    Sit 1102   1.910   0.360   1.812
    2MMT    Sit 1103   1.901   0.961   1.808
    2MMT     Op 1104   1.937   0.346   1.970
    2MMT     Op 1105   1.887   0.969   1.968
    2MMT     Oh 1106   2.147   1.076   1.974
    2MMT     Ob 1107   2.283   0.897   1.751
    2MMT     Ob 1108   1.925   1.106   1.748
    2MMT     Ob 1109   2.022   0.862   1.774
    2MMT      H 1110   2.192   1.161   1.953
    2MMT    Mgo 1111   1.731   0.643   2.083
    2MMT    Sit 1112   2.166   0.807   1.809
    2MMT    Sit 1113   2.159   0.514   1.809
    2MMT     Op 1114   2.185   0.795   1.968
    2MMT     Op 1115   2.151   0.521   1.969
    2MMT   Ohmg 1116   1.903   0.621   1.973
    2MMT     Ob 1117   2.022   0.458   1.751
    2MMT     Ob 1118   2.186   0.658   1.751
    2MMT     Ob 1119   2.280   0.413   1.773
    2MMT      H 1120   1.943   0.706   1.946
    2MMT    Alo 1121   2.504   0.494   2.079
    2MMT    Sit 1122   2.588   0.328   2.346
    2MMT    Sit 1123   2.586   0.623   2.350
    2MMT     Op 1124   2.566   0.340   2.187
    2MMT     Op 1125   2.601   0.613   2.190
    2MMT     Oh 1126   2.342   0.507   2.182
    2MMT     Ob 1127   2.206   0.687   2.409
    2MMT     Ob 1128   2.563   0.475   2.407
    2MMT     Ob 1129   2.464   0.719   2.384
    2MMT      H 1130   2.291   0.426   2.205
    2MMT    Alo 1131   2.242   0.943   2.078
    2MMT    Sit 1132   2.321   0.778   2.348
    2MMT    Sit 1133   2.327   1.073   2.348
    2MMT     Op 1134   2.304   0.789   2.189
    2MMT     Op 1135   2.338   1.067   2.189
    2MMT   Ohmg 1136   2.583   0.963   2.188
    2MMT     Ob 1137   2.462   1.134   2.408
    2MMT     Ob 1138   2.305   0.926   2.406
    2MMT     Ob 1139   2.205   1.168   2.385
    2MMT      H 1140   2.535   0.881   2.211
    2MMT    Alo 1141   2.498   1.093   2.079
    2MMT    Sit 1142   2.426   0.361   1.808
    2MMT    Sit 1143   2.416   0.961   1.810
    2MMT     Op 1144   2.445   0.348   1.967
    2MMT     Op 1145   2.398   0.968   1.969
    2MMT   Ohmg 1146   2.651   1.082   1.972
    2MMT     Ob 1147   2.796   0.901   1.754
    2MMT     Ob 1148   2.443   1.106   1.752
    2MMT     Ob 1149   2.538   0.861   1.776
    2MMT      H 1150   2.694   1.170   1.956
    2MMT    Alo 1151   2.245   0.644   2.079
    2MMT    Sit 1152   2.681   0.804   1.815
    2MMT    Sit 1153   2.676   0.513   1.808
    2MMT    Omg 1154   2.697   0.786   1.967
    2MMT     Op 1155   2.661   0.518   1.967
    2MMT     Oh 1156   2.408   0.630   1.976
    2MMT     Ob 1157   2.538   0.456   1.748
    2MMT     Ob 1158   2.700   0.658   1.748
    2MMT     Ob 1159   2.797   0.416   1.771
    2MMT      H 1160   2.455   0.715   1.958
    2MMT    Alo 1161   3.020   0.494   2.079
    2MMT    Sit 1162   0.007   0.333   2.342
    2MMT    Sit 1163   0.006   0.625   2.351
    2MMT    Omg 1164   3.087   0.353   2.189
    2MMT     Op 1165   0.022   0.620   2.189
    2MMT     Oh 1166   2.857   0.506   2.180
    2MMT     Ob 1167   2.721   0.682   2.409
    2MMT     Ob 1168   3.084   0.478   2.408
    2MMT     Ob 1169   2.980   0.719   2.386
    2MMT      H 1170   2.814   0.422   2.208
    2MMT    Mgo 1171   2.756   0.943   2.082
    2MMT    Sit 1172   2.835   0.774   2.348
    2MMT    Sit 1173   2.846   1.074   2.349
    2MMT    Omg 1174   2.818   0.782   2.193
    2MMT    Omg 1175   2.866   1.072   2.195
    2MMT     Oh 1176   0.017   0.954   2.184
    2MMT     Ob 1177   2.982   1.134   2.412
    2MMT     Ob 1178   2.822   0.926   2.407
    2MMT     Ob 1179   2.723   1.170   2.386
    2MMT      H 1180   3.060   0.874   2.207
    2MMT    Alo 1181   3.016   1.091   2.082
    2MMT    Sit 1182   2.942   0.363   1.811
    2MMT    Sit 1183   2.933   0.964   1.815
    2MMT    Omg 1184   2.962   0.355   1.963
    2MMT    Omg 1185   2.924   0.971   1.968
    2MMT     Oh 1186   0.085   1.075   1.977
    2MMT     Ob 1187   0.216   0.899   1.748
    2MMT     Ob 1188   2.956   1.107   1.752
    2MMT     Ob 1189   3.055   0.867   1.774
    2MMT      H 1190   0.130   1.161   1.961
    2MMT    Alo 1191   2.759   0.645   2.080
    2MMT    Sit 1192   0.101   0.810   1.814
    2MMT    Sit 1193   0.096   0.515   1.808
    2MMT     Op 1194   0.120   0.796   1.969
    2MMT     Op 1195   0.082   0.525   1.966
    2MMT     Oh 1196   2.923   0.633   1.975
    2MMT     Ob 1197   3.056   0.457   1.746
    2MMT     Ob 1198   0.117   0.662   1.747
    2MMT     Ob 1199   0.218   0.419   1.770
    2MMT      H 1200   2.964   0.722   1.969
    2MMT    Alo 1201   0.439   1.392   2.080
    2MMT    Sit 1202   0.517   1.226   2.348
    2MMT    Sit 1203   0.523   1.521   2.347
    2MMT     Op 1204   0.494   1.238   2.191
    2MMT    Omg 1205   0.532   1.510   2.193
    2MMT     Oh 1206   0.275   1.402   2.181
    2MMT     Ob 1207   0.144   1.580   2.410
    2MMT     Ob 1208   0.499   1.374   2.410
    2MMT     Ob 1209   0.402   1.617   2.387
    2MMT      H 1210   0.225   1.318   2.192
    2MMT    Mgo 1211   0.182   1.840   2.078
    2MMT    Sit 1212   0.259   1.674   2.346
    2MMT    Sit 1213   0.273   1.972   2.343
    2MMT    Omg 1214   0.241   1.679   2.192
    2MMT    Omg 1215   0.290   1.970   2.189
    2MMT     Oh 1216   0.539   1.855   2.181
    2MMT     Ob 1217   0.411   2.030   2.406
    2MMT     Ob 1218   0.244   1.826   2.401
    2MMT     Ob 1219   0.152   2.070   2.382
    2MMT      H 1220   0.491   1.770   2.197
    2MMT    Alo 1221   0.441   1.990   2.075
    2MMT    Sit 1222   0.359   1.255   1.811
    2MMT    Sit 1223   0.359   1.860   1.809
    2MMT     Op 1224   0.373   1.244   1.970
    2MMT    Omg 1225   0.349   1.870   1.963
    2MMT     Oh 1226   0.606   1.979   1.975
    2MMT     Ob 1227   0.737   1.800   1.746
    2MMT     Ob 1228   0.377   2.005   1.744
    2MMT     Ob 1229   0.479   1.764   1.769
    2MMT      H 1230   0.652   2.064   1.961
    2MMT    Alo 1231   0.181   1.541   2.080
    2MMT    Sit 1232   0.622   1.707   1.810
    2MMT    Sit 1233   0.608   1.408   1.814
    2MMT    Omg 1234   0.640   1.701   1.964
    2MMT    Omg 1235   0.589   1.410   1.967
    2MMT     Oh 1236   0.344   1.526   1.976
    2MMT     Ob 1237   0.472   1.347   1.749
    2MMT     Ob 1238   0.633   1.554   1.753
    2MMT     Ob 1239   0.731   1.310   1.777
    2MMT      H 1240   0.392   1.611   1.965
    2MMT    Alo 1241   0.957   1.390   2.079
    2MMT    Sit 1242   1.033   1.227   2.350
    2MMT    Sit 1243   1.040   1.522   2.348
    2MMT     Op 1244   1.021   1.237   2.191
    2MMT     Op 1245   1.059   1.513   2.190
    2MMT   Ohmg 1246   0.806   1.399   2.187
    2MMT     Ob 1247   0.662   1.581   2.403
    2MMT     Ob 1248   1.018   1.376   2.409
    2MMT     Ob 1249   0.921   1.621   2.385
    2MMT      H 1250   0.758   1.314   2.203
    2MMT    Alo 1251   0.702   1.839   2.077
    2MMT    Sit 1252   0.776   1.679   2.344
    2MMT    Sit 1253   0.786   1.972   2.345
    2MMT    Omg 1254   0.763   1.696   2.191
    2MMT     Op 1255   0.803   1.964   2.187
    2MMT     Oh 1256   1.052   1.851   2.181
    2MMT     Ob 1257   0.921   2.034   2.407
    2MMT     Ob 1258   0.761   1.828   2.408
    2MMT     Ob 1259   0.666   2.070   2.376
    2MMT      H 1260   1.000   1.769   2.196
    2MMT    Alo 1261   0.960   1.988   2.078
    2MMT    Sit 1262   0.877   1.257   1.812
    2MMT    Sit 1263   0.874   1.856   1.807
    2MMT     Op 1264   0.899   1.244   1.970
    2MMT     Op 1265   0.858   1.866   1.966
    2MMT     Oh 1266   1.121   1.973   1.975
    2MMT     Ob 1267   1.249   1.800   1.751
    2MMT     Ob 1268   0.900   2.003   1.749
    2MMT     Ob 1269   0.992   1.756   1.776
    2MMT      H 1270   1.172   2.056   1.959
    2MMT    Mgo 1271   0.699   1.539   2.079
    2MMT    Sit 1272   1.137   1.703   1.810
    2MMT    Sit 1273   1.129   1.409   1.810
    2MMT     Op 1274   1.154   1.690   1.970
    2MMT     Op 1275   1.119   1.414   1.970
    2MMT   Ohmg 1276   0.872   1.517   1.971
    2MMT     Ob 1277   0.991   1.353   1.752
    2MMT     Ob 1278   1.159   1.554   1.755
    2MMT     Ob 1279   1.248   1.309   1.772
    2MMT      H 1280   0.916   1.601   1.947
    2MMT    Alo 1281   1.471   1.393   2.076
    2MMT    Sit 1282   1.548   1.227   2.345
    2MMT    Sit 1283   1.556   1.522   2.345
    2MMT     Op 1284   1.529   1.239   2.187
    2MMT     Op 1285   1.568   1.516   2.188
    2MMT     Oh 1286   1.310   1.405   2.182
    2MMT     Ob 1287   1.179   1.579   2.408
    2MMT     Ob 1288   1.529   1.375   2.406
    2MMT     Ob 1289   1.435   1.616   2.386
    2MMT      H 1290   1.259   1.322   2.197
    2MMT    Alo 1291   1.218   1.839   2.080
    2MMT    Sit 1292   1.292   1.674   2.348
    2MMT    Sit 1293   1.301   1.967   2.349
    2MMT     Op 1294   1.274   1.685   2.191
    2MMT    Omg 1295   1.309   1.958   2.195
    2MMT   Ohmg 1296   1.582   1.849   2.189
    2MMT     Ob 1297   1.440   2.030   2.407
    2MMT     Ob 1298   1.280   1.820   2.412
    2MMT     Ob 1299   1.180   2.062   2.389
    2MMT      H 1300   1.531   1.767   2.204
    2MMT    Mgo 1301   1.477   1.989   2.081
    2MMT    Sit 1302   1.394   1.257   1.807
    2MMT    Sit 1303   1.386   1.858   1.814
    2MMT     Op 1304   1.411   1.246   1.967
    2MMT    Omg 1305   1.368   1.859   1.968
    2MMT   Ohmg 1306   1.650   1.967   1.974
    2MMT     Ob 1307   1.769   1.798   1.754
    2MMT     Ob 1308   1.415   2.005   1.756
    2MMT     Ob 1309   1.508   1.760   1.779
    2MMT      H 1310   1.694   2.051   1.948
    2MMT    Alo 1311   1.213   1.540   2.079
    2MMT    Sit 1312   1.653   1.706   1.814
    2MMT    Sit 1313   1.644   1.411   1.808
    2MMT     Op 1314   1.670   1.692   1.971
    2MMT     Op 1315   1.626   1.417   1.967
    2MMT     Oh 1316   1.375   1.526   1.976
    2MMT     Ob 1317   1.505   1.354   1.749
    2MMT     Ob 1318   1.669   1.557   1.751
    2MMT     Ob 1319   1.763   1.311   1.774
    2MMT      H 1320   1.419   1.611   1.952
    2MMT    Mgo 1321   1.985   1.394   2.077
    2MMT    Sit 1322   2.063   1.228   2.341
    2MMT    Sit 1323   2.074   1.527   2.344
    2MMT    Omg 1324   2.047   1.233   2.189
    2MMT    Omg 1325   2.093   1.525   2.190
    2MMT   Ohmg 1326   1.812   1.412   2.185
    2MMT     Ob 1327   1.692   1.581   2.406
    2MMT     Ob 1328   2.050   1.378   2.402
    2MMT     Ob 1329   1.952   1.621   2.384
    2MMT      H 1330   1.768   1.326   2.199
    2MMT    Alo 1331   1.734   1.839   2.082
    2MMT    Sit 1332   1.808   1.675   2.348
    2MMT    Sit 1333   1.818   1.969   2.351
    2MMT     Op 1334   1.793   1.688   2.190
    2MMT     Op 1335   1.836   1.963   2.192
    2MMT     Oh 1336   2.088   1.854   2.184
    2MMT     Ob 1337   1.956   2.028   2.411
    2MMT     Ob 1338   1.791   1.824   2.409
    2MMT     Ob 1339   1.700   2.070   2.386
    2MMT      H 1340   2.041   1.769   2.203
    2MMT    Alo 1341   1.992   1.988   2.082
    2MMT    Sit 1342   1.908   1.254   1.812
    2MMT    Sit 1343   1.906   1.859   1.812
    2MMT    Omg 1344   1.924   1.236   1.965
    2MMT     Op 1345   1.895   1.864   1.971
    2MMT     Oh 1346   2.154   1.975   1.978
    2MMT     Ob 1347   2.285   1.802   1.750
    2MMT     Ob 1348   1.931   2.004   1.754
    2MMT     Ob 1349   2.026   1.762   1.775
    2MMT      H 1350   2.199   2.057   1.946
    2MMT    Alo 1351   1.728   1.541   2.078
    2MMT    Sit 1352   2.171   1.707   1.809
    2MMT    Sit 1353   2.163   1.413   1.811
    2MMT     Op 1354   2.191   1.697   1.968
    2MMT    Omg 1355   2.152   1.424   1.965
    2MMT   Ohmg 1356   1.879   1.531   1.969
    2MMT     Ob 1357   2.023   1.351   1.753
    2MMT     Ob 1358   2.185   1.559   1.749
    2MMT     Ob 1359   2.281   1.313   1.774
    2MMT      H 1360   1.927   1.614   1.948
    2MMT    Alo 1361   2.503   1.392   2.081
    2MMT    Sit 1362   2.579   1.226   2.348
    2MMT    Sit 1363   2.586   1.521   2.348
    2MMT     Op 1364   2.559   1.239   2.191
    2MMT    Omg 1365   2.596   1.511   2.194
    2MMT     Oh 1366   2.337   1.405   2.184
    2MMT     Ob 1367   2.211   1.583   2.408
    2MMT     Ob 1368   2.563   1.375   2.411
    2MMT     Ob 1369   2.467   1.620   2.387
    2MMT      H 1370   2.285   1.321   2.190
    2MMT    Alo 1371   2.250   1.840   2.080
    2MMT    Sit 1372   2.325   1.678   2.349
    2MMT    Sit 1373   2.335   1.971   2.351
    2MMT     Op 1374   2.309   1.691   2.190
    2MMT     Op 1375   2.349   1.965   2.191
    2MMT     Oh 1376   2.599   1.855   2.184
    2MMT     Ob 1377   2.473   2.029   2.409
    2MMT     Ob 1378   2.310   1.826   2.409
    2MMT     Ob 1379   2.215   2.070   2.387
    2MMT      H 1380   2.556   1.767   2.198
    2MMT    Alo 1381   2.507   1.989   2.080
    2MMT    Sit 1382   2.424   1.257   1.810
    2MMT    Sit 1383   2.423   1.859   1.809
    2MMT     Op 1384   2.438   1.244   1.970
    2MMT     Op 1385   2.407   1.868   1.969
    2MMT     Oh 1386   2.667   1.976   1.978
    2MMT     Ob 1387   2.801   1.801   1.751
    2MMT     Ob 1388   2.450   2.005   1.752
    2MMT     Ob 1389   2.542   1.761   1.775
    2MMT      H 1390   2.718   2.057   1.954
    2MMT    Alo 1391   2.244   1.542   2.078
    2MMT    Sit 1392   2.687   1.707   1.814
    2MMT    Sit 1393   2.673   1.408   1.814
    2MMT    Omg 1394   2.704   1.701   1.968
    2MMT    Omg 1395   2.655   1.410   1.968
    2MMT     Oh 1396   2.409   1.527   1.978
    2MMT     Ob 1397   2.540   1.346   1.751
    2MMT     Ob 1398   2.702   1.555   1.756
    2MMT     Ob 1399   2.796   1.310   1.777
    2MMT      H 1400   2.460   1.606   1.951
    2MMT    Alo 1401   3.021   1.391   2.081
    2MMT    Sit 1402   3.095   1.226   2.350
    2MMT    Sit 1403   0.007   1.523   2.349
    2MMT     Op 1404   3.085   1.236   2.193
    2MMT     Op 1405   0.024   1.512   2.191
    2MMT   Ohmg 1406   2.870   1.399   2.188
    2MMT     Ob 1407   2.724   1.583   2.406
    2MMT     Ob 1408   3.085   1.375   2.412
    2MMT     Ob 1409   2.983   1.619   2.387
    2MMT      H 1410   2.819   1.315   2.203
    2MMT    Alo 1411   2.765   1.839   2.081
    2MMT    Sit 1412   2.839   1.679   2.346
    2MMT    Sit 1413   2.851   1.971   2.351
    2MMT    Omg 1414   2.825   1.697   2.194
    2MMT     Op 1415   2.860   1.968   2.191
    2MMT   Ohmg 1416   0.009   1.862   2.186
    2MMT     Ob 1417   2.989   2.029   2.408
    2MMT     Ob 1418   2.826   1.826   2.412
    2MMT     Ob 1419   2.730   2.069   2.388
    2MMT      H 1420   3.057   1.777   2.201
    2MMT    Alo 1421   3.022   1.990   2.080
    2MMT    Sit 1422   2.940   1.257   1.814
    2MMT    Sit 1423   2.939   1.858   1.811
    2MMT     Op 1424   2.962   1.242   1.972
    2MMT     Op 1425   2.920   1.869   1.969
    2MMT   Ohmg 1426   0.076   1.981   1.971
    2MMT     Ob 1427   0.220   1.795   1.750
    2MMT     Ob 1428   2.963   2.005   1.751
    2MMT     Ob 1429   3.057   1.759   1.774
    2MMT      H 1430   0.131   2.061   1.956
    2MMT    Mgo 1431   2.764   1.539   2.080
    2MMT    Sit 1432   0.106   1.700   1.812
    2MMT    Sit 1433   0.095   1.407   1.811
    2MMT    Omg 1434   0.120   1.682   1.965
    2MMT     Op 1435   0.085   1.412   1.970
    2MMT   Ohmg 1436   2.936   1.517   1.973
    2MMT     Ob 1437   3.053   1.349   1.753
    2MMT     Ob 1438   0.119   1.551   1.747
    2MMT     Ob 1439   0.214   1.309   1.774
    2MMT      H 1440   2.984   1.602   1.955
    2MMT    Alo 1441   0.446   2.288   2.074
    2MMT    Sit 1442   0.522   2.126   2.342
    2MMT    Sit 1443   0.527   2.419   2.341
    2MMT     Op 1444   0.502   2.137   2.184
    2MMT    Omg 1445   0.537   2.410   2.187
    2MMT     Oh 1446   0.280   2.302   2.176
    2MMT     Ob 1447   0.152   2.478   2.404
    2MMT     Ob 1448   0.505   2.274   2.402
    2MMT     Ob 1449   0.409   2.519   2.383
    2MMT      H 1450   0.238   2.217   2.202
    2MMT    Alo 1451   0.193   2.734   2.076
    2MMT    Sit 1452   0.265   2.572   2.345
    2MMT    Sit 1453   0.275   2.867   2.344
    2MMT     Op 1454   0.251   2.581   2.186
    2MMT     Op 1455   0.293   2.857   2.186
    2MMT     Oh 1456   0.546   2.749   2.178
    2MMT     Ob 1457   0.414   2.921   2.405
    2MMT     Ob 1458   0.247   2.722   2.403
    2MMT     Ob 1459   0.159   2.970   2.380
    2MMT      H 1460   0.503   2.662   2.196
    2MMT    Alo 1461   0.450   2.885   2.076
    2MMT    Sit 1462   0.365   2.154   1.804
    2MMT    Sit 1463   0.365   2.752   1.806
    2MMT     Op 1464   0.382   2.142   1.963
    2MMT     Op 1465   0.353   2.757   1.965
    2MMT     Oh 1466   0.612   2.874   1.973
    2MMT     Ob 1467   0.744   2.699   1.748
    2MMT     Ob 1468   0.386   2.898   1.744
    2MMT     Ob 1469   0.486   2.659   1.767
    2MMT      H 1470   0.659   2.960   1.967
    2MMT    Alo 1471   0.189   2.437   2.076
    2MMT    Sit 1472   0.631   2.603   1.809
    2MMT    Sit 1473   0.616   2.305   1.808
    2MMT    Omg 1474   0.647   2.597   1.963
    2MMT    Omg 1475   0.597   2.307   1.962
    2MMT     Oh 1476   0.349   2.423   1.970
    2MMT     Ob 1477   0.480   2.246   1.744
    2MMT     Ob 1478   0.644   2.452   1.751
    2MMT     Ob 1479   0.739   2.206   1.773
    2MMT      H 1480   0.403   2.505   1.958
    2MMT    Alo 1481   0.965   2.286   2.079
    2MMT    Sit 1482   1.040   2.123   2.348
    2MMT    Sit 1483   1.049   2.419   2.349
    2MMT     Op 1484   1.025   2.133   2.189
    2MMT     Op 1485   1.067   2.411   2.191
    2MMT   Ohmg 1486   0.811   2.295   2.186
    2MMT     Ob 1487   0.667   2.479   2.399
    2MMT     Ob 1488   1.030   2.272   2.406
    2MMT     Ob 1489   0.927   2.516   2.383
    2MMT      H 1490   0.761   2.212   2.198
    2MMT    Alo 1491   0.708   2.735   2.077
    2MMT    Sit 1492   0.784   2.576   2.342
    2MMT    Sit 1493   0.793   2.869   2.349
    2MMT    Omg 1494   0.770   2.594   2.189
    2MMT     Op 1495   0.805   2.866   2.189
    2MMT   Ohmg 1496   1.049   2.762   2.190
    2MMT     Ob 1497   0.930   2.930   2.409
    2MMT     Ob 1498   0.770   2.723   2.407
    2MMT     Ob 1499   0.672   2.965   2.385
    2MMT      H 1500   1.002   2.676   2.205
    2MMT    Alo 1501   0.964   2.888   2.081
    2MMT    Sit 1502   0.883   2.152   1.812
    2MMT    Sit 1503   0.881   2.755   1.811
    2MMT     Op 1504   0.903   2.138   1.969
    2MMT     Op 1505   0.863   2.766   1.969
    2MMT   Ohmg 1506   1.117   2.880   1.974
    2MMT     Ob 1507   1.258   2.701   1.764
    2MMT     Ob 1508   0.904   2.903   1.752
    2MMT     Ob 1509   1.001   2.659   1.779
    2MMT      H 1510   1.167   2.962   1.957
    2MMT    Mgo 1511   0.707   2.437   2.076
    2MMT    Sit 1512   1.144   2.599   1.817
    2MMT    Sit 1513   1.136   2.307   1.811
    2MMT    Omg 1514   1.160   2.580   1.971
    2MMT     Op 1515   1.124   2.308   1.971
    2MMT   Ohmg 1516   0.881   2.413   1.970
    2MMT     Ob 1517   0.999   2.243   1.750
    2MMT     Ob 1518   1.157   2.452   1.754
    2MMT     Ob 1519   1.257   2.210   1.774
    2MMT      H 1520   0.930   2.497   1.952
    2MMT    Alo 1521   1.479   2.288   2.081
    2MMT    Sit 1522   1.554   2.127   2.348
    2MMT    Sit 1523   1.564   2.420   2.353
    2MMT    Omg 1524   1.541   2.146   2.194
    2MMT     Op 1525   1.580   2.415   2.193
    2MMT     Oh 1526   1.318   2.302   2.186
    2MMT     Ob 1527   1.185   2.482   2.413
    2MMT     Ob 1528   1.541   2.274   2.413
    2MMT     Ob 1529   1.445   2.517   2.390
    2MMT      H 1530   1.271   2.217   2.201
    2MMT    Mgo 1531   1.222   2.738   2.083
    2MMT    Sit 1532   1.300   2.572   2.349
    2MMT    Sit 1533   1.313   2.871   2.350
    2MMT    Omg 1534   1.284   2.579   2.196
    2MMT    Omg 1535   1.332   2.869   2.196
    2MMT     Oh 1536   1.579   2.750   2.186
    2MMT     Ob 1537   1.451   2.930   2.411
    2MMT     Ob 1538   1.288   2.724   2.409
    2MMT     Ob 1539   1.191   2.970   2.384
    2MMT      H 1540   1.526   2.669   2.201
    2MMT    Alo 1541   1.482   2.885   2.082
    2MMT    Sit 1542   1.401   2.157   1.815
    2MMT    Sit 1543   1.399   2.756   1.819
    2MMT    Omg 1544   1.418   2.150   1.969
    2MMT    Omg 1545   1.391   2.768   1.972
    2MMT     Oh 1546   1.647   2.871   1.979
    2MMT     Ob 1547   1.777   2.696   1.753
    2MMT     Ob 1548   1.423   2.903   1.755
    2MMT     Ob 1549   1.518   2.658   1.778
    2MMT      H 1550   1.693   2.953   1.951
    2MMT    Alo 1551   1.222   2.439   2.083
    2MMT    Sit 1552   1.662   2.602   1.810
    2MMT    Sit 1553   1.652   2.308   1.810
    2MMT     Op 1554   1.681   2.590   1.971
    2MMT     Op 1555   1.638   2.318   1.971
    2MMT     Oh 1556   1.384   2.425   1.980
    2MMT     Ob 1557   1.515   2.249   1.752
    2MMT     Ob 1558   1.680   2.453   1.754
    2MMT     Ob 1559   1.770   2.208   1.778
    2MMT      H 1560   1.427   2.508   1.950
    2MMT    Alo 1561   1.994   2.286   2.081
    2MMT    Sit 1562   2.069   2.122   2.351
    2MMT    Sit 1563   2.078   2.416   2.351
    2MMT     Op 1564   2.051   2.135   2.193
    2MMT     Op 1565   2.094   2.407   2.192
    2MMT     Oh 1566   1.831   2.302   2.184
    2MMT     Ob 1567   1.703   2.478   2.410
    2MMT     Ob 1568   2.053   2.272   2.411
    2MMT     Ob 1569   1.961   2.518   2.386
    2MMT      H 1570   1.778   2.220   2.201
    2MMT    Alo 1571   1.739   2.736   2.080
    2MMT    Sit 1572   1.815   2.573   2.350
    2MMT    Sit 1573   1.825   2.867   2.350
    2MMT     Op 1574   1.799   2.584   2.192
    2MMT     Op 1575   1.836   2.861   2.190
    2MMT   Ohmg 1576   2.081   2.758   2.189
    2MMT     Ob 1577   1.965   2.922   2.407
    2MMT     Ob 1578   1.799   2.722   2.408
    2MMT     Ob 1579   1.709   2.970   2.386
    2MMT      H 1580   2.035   2.672   2.202
    2MMT    Alo 1581   1.997   2.885   2.080
    2MMT    Sit 1582   1.914   2.152   1.811
    2MMT    Sit 1583   1.913   2.753   1.812
    2MMT     Op 1584   1.933   2.141   1.971
    2MMT     Op 1585   1.897   2.762   1.971
    2MMT   Ohmg 1586   2.149   2.874   1.973
    2MMT     Ob 1587   2.294   2.689   1.759
    2MMT     Ob 1588   1.938   2.900   1.754
    2MMT     Ob 1589   2.034   2.656   1.776
    2MMT      H 1590   2.198   2.954   1.944
    2MMT    Alo 1591   1.736   2.438   2.081
    2MMT    Sit 1592   2.178   2.595   1.815
    2MMT    Sit 1593   2.166   2.303   1.809
    2MMT    Omg 1594   2.190   2.577   1.969
    2MMT     Op 1595   2.152   2.309   1.970
    2MMT     Oh 1596   1.901   2.422   1.979
    2MMT     Ob 1597   2.027   2.247   1.753
    2MMT     Ob 1598   2.192   2.448   1.751
    2MMT     Ob 1599   2.285   2.204   1.776
    2MMT      H 1600   1.950   2.503   1.953
    2MMT    Alo 1601   2.510   2.287   2.081
    2MMT    Sit 1602   2.587   2.123   2.350
    2MMT    Sit 1603   2.596   2.417   2.353
    2MMT     Op 1604   2.568   2.136   2.191
    2MMT     Op 1605   2.610   2.409   2.193
    2MMT     Oh 1606   2.348   2.298   2.183
    2MMT     Ob 1607   2.215   2.476   2.413
    2MMT     Ob 1608   2.569   2.271   2.411
    2MMT     Ob 1609   2.475   2.513   2.388
    2MMT      H 1610   2.300   2.215   2.203
    2MMT    Mgo 1611   2.254   2.734   2.081
    2MMT    Sit 1612   2.331   2.567   2.347
    2MMT    Sit 1613   2.345   2.865   2.346
    2MMT    Omg 1614   2.313   2.573   2.194
    2MMT    Omg 1615   2.363   2.865   2.193
    2MMT     Oh 1616   2.608   2.749   2.185
    2MMT     Ob 1617   2.478   2.928   2.413
    2MMT     Ob 1618   2.317   2.719   2.404
    2MMT     Ob 1619   2.222   2.964   2.382
    2MMT      H 1620   2.559   2.666   2.205
    2MMT    Alo 1621   2.514   2.883   2.082
    2MMT    Sit 1622   2.431   2.153   1.810
    2MMT    Sit 1623   2.431   2.753   1.817
    2MMT     Op 1624   2.450   2.141   1.970
    2MMT    Omg 1625   2.422   2.763   1.970
    2MMT     Oh 1626   2.679   2.870   1.980
    2MMT     Ob 1627   2.805   2.693   1.753
    2MMT     Ob 1628   2.456   2.898   1.755
    2MMT     Ob 1629   2.551   2.654   1.778
    2MMT      H 1630   2.732   2.952   1.967
    2MMT    Alo 1631   2.251   2.436   2.081
    2MMT    Sit 1632   2.693   2.598   1.816
    2MMT    Sit 1633   2.681   2.306   1.811
    2MMT     Op 1634   2.709   2.585   1.974
    2MMT     Op 1635   2.667   2.313   1.971
    2MMT     Oh 1636   2.416   2.421   1.977
    2MMT     Ob 1637   2.543   2.250   1.752
    2MMT     Ob 1638   2.709   2.451   1.755
    2MMT     Ob 1639   2.799   2.205   1.775
    2MMT      H 1640   2.459   2.507   1.957
    2MMT    Alo 1641   3.025   2.288   2.080
    2MMT    Sit 1642   0.007   2.124   2.348
    2MMT    Sit 1643   0.015   2.417   2.350
    2MMT     Op 1644   3.082   2.139   2.189
    2MMT     Op 1645   0.028   2.410   2.189
    2MMT     Oh 1646   2.862   2.303   2.184
    2MMT     Ob 1647   2.733   2.476   2.411
    2MMT     Ob 1648   3.085   2.272   2.407
    2MMT     Ob 1649   2.991   2.515   2.387
    2MMT      H 1650   2.819   2.219   2.210
    2MMT    Alo 1651   2.773   2.735   2.085
    2MMT    Sit 1652   2.847   2.571   2.353
    2MMT    Sit 1653   2.857   2.866   2.351
    2MMT     Op 1654   2.828   2.582   2.194
    2MMT    Omg 1655   2.865   2.855   2.196
    2MMT   Ohmg 1656   0.042   2.746   2.185
    2MMT     Ob 1657   2.996   2.928   2.406
    2MMT     Ob 1658   2.833   2.720   2.413
    2MMT     Ob 1659   2.737   2.965   2.390
    2MMT      H 1660   3.093   2.664   2.216
    2MMT    Mgo 1661   3.032   2.885   2.081
    2MMT    Sit 1662   2.946   2.153   1.812
    2MMT    Sit 1663   2.941   2.754   1.816
    2MMT     Op 1664   2.961   2.145   1.970
    2MMT    Omg 1665   2.924   2.753   1.969
    2MMT   Ohmg 1666   0.108   2.864   1.970
    2MMT     Ob 1667   0.228   2.692   1.746
    2MMT     Ob 1668   2.960   2.902   1.757
    2MMT     Ob 1669   3.064   2.660   1.771
    2MMT      H 1670   0.159   2.948   1.959
    2MMT    Alo 1671   2.768   2.437   2.083
    2MMT    Sit 1672   0.112   2.602   1.809
    2MMT    Sit 1673   0.100   2.308   1.807
    2MMT     Op 1674   0.130   2.587   1.966
    2MMT     Op 1675   0.087   2.315   1.966
    2MMT     Oh 1676   2.930   2.424   1.978
    2MMT     Ob 1677   3.057   2.249   1.751
    2MMT     Ob 1678   0.122   2.454   1.747
    2MMT     Ob 1679   0.220   2.211   1.769
    2MMT      H 1680   2.978   2.509   1.963
    2MMT    Mgo 1681   0.450   3.184   2.074
    2MMT    Sit 1682   0.528   3.016   2.342
    2MMT    Sit 1683   0.542   3.314   2.338
    2MMT    Omg 1684   0.511   3.023   2.188
    2MMT    Omg 1685   0.559   3.314   2.185
    2MMT   Ohmg 1686   0.278   3.209   2.183
    2MMT     Ob 1687   0.160   3.377   2.399
    2MMT     Ob 1688   0.512   3.169   2.396
    2MMT     Ob 1689   0.421   3.417   2.376
    2MMT      H 1690   0.230   3.124   2.201
    2MMT    Alo 1691   0.193   0.047   2.074
    2MMT    Sit 1692   0.273   3.470   2.339
    2MMT    Sit 1693   0.274   0.177   2.343
    2MMT     Op 1694   0.255   3.483   2.182
    2MMT     Op 1695   0.293   0.169   2.184
    2MMT     Oh 1696   0.545   0.059   2.177
    2MMT     Ob 1697   0.411   0.234   2.403
    2MMT     Ob 1698   0.254   0.031   2.401
    2MMT     Ob 1699   0.155   0.277   2.377
    2MMT      H 1700   0.500   3.558   2.192
    2MMT    Alo 1701   0.447   0.195   2.075
    2MMT    Sit 1702   0.372   3.045   1.809
    2MMT    Sit 1703   0.365   0.067   1.805
    2MMT    Omg 1704   0.388   3.028   1.962
    2MMT     Op 1705   0.353   0.072   1.963
    2MMT     Oh 1706   0.608   0.186   1.972
    2MMT     Ob 1707   0.745   0.005   1.741
    2MMT     Ob 1708   0.379   0.215   1.745
    2MMT     Ob 1709   0.487   3.560   1.765
    2MMT      H 1710   0.664   0.267   1.961
    2MMT    Alo 1711   0.192   3.335   2.074
    2MMT    Sit 1712   0.630   3.500   1.802
    2MMT    Sit 1713   0.626   3.205   1.807
    2MMT     Op 1714   0.647   3.488   1.961
    2MMT    Omg 1715   0.618   3.214   1.960
    2MMT   Ohmg 1716   0.345   3.326   1.966
    2MMT     Ob 1717   0.489   3.140   1.748
    2MMT     Ob 1718   0.642   3.351   1.742
    2MMT     Ob 1719   0.748   3.110   1.765
    2MMT      H 1720   0.398   3.408   1.955
    2MMT    Alo 1721   0.968   3.186   2.078
    2MMT    Sit 1722   1.045   3.021   2.348
    2MMT    Sit 1723   1.055   3.316   2.346
    2MMT     Op 1724   1.025   3.037   2.189
    2MMT     Op 1725   1.070   3.308   2.188
    2MMT     Oh 1726   0.808   3.202   2.181
    2MMT     Ob 1727   0.681   3.369   2.399
    2MMT     Ob 1728   1.027   3.173   2.407
    2MMT     Ob 1729   0.937   3.419   2.380
    2MMT      H 1730   0.760   3.118   2.200
    2MMT    Alo 1731   0.710   0.046   2.073
    2MMT    Sit 1732   0.790   3.467   2.338
    2MMT    Sit 1733   0.788   0.174   2.341
    2MMT     Op 1734   0.771   3.480   2.182
    2MMT    Omg 1735   0.798   0.165   2.188
    2MMT   Ohmg 1736   1.072   0.054   2.184
    2MMT     Ob 1737   0.925   0.233   2.403
    2MMT     Ob 1738   0.765   0.027   2.402
    2MMT     Ob 1739   0.666   0.271   2.382
    2MMT      H 1740   1.026   3.557   2.205
    2MMT    Mgo 1741   0.966   0.196   2.076
    2MMT    Sit 1742   0.890   3.052   1.809
    2MMT    Sit 1743   0.880   0.066   1.807
    2MMT     Op 1744   0.904   3.044   1.968
    2MMT    Omg 1745   0.858   0.067   1.961
    2MMT   Ohmg 1746   1.140   0.175   1.970
    2MMT     Ob 1747   1.263   0.005   1.751
    2MMT     Ob 1748   0.900   0.214   1.751
    2MMT     Ob 1749   1.003   3.555   1.772
    2MMT      H 1750   1.187   0.259   1.949
    2MMT    Alo 1751   0.708   3.334   2.073
    2MMT    Sit 1752   1.148   3.500   1.810
    2MMT    Sit 1753   1.141   3.204   1.807
    2MMT     Op 1754   1.166   3.484   1.968
    2MMT     Op 1755   1.127   3.212   1.967
    2MMT     Oh 1756   0.875   3.323   1.974
    2MMT     Ob 1757   1.005   3.145   1.750
    2MMT     Ob 1758   1.166   3.350   1.749
    2MMT     Ob 1759   1.262   3.105   1.775
    2MMT      H 1760   0.920   3.409   1.956
    2MMT    Alo 1761   1.485   3.185   2.077
    2MMT    Sit 1762   1.564   3.021   2.349
    2MMT    Sit 1763   1.570   3.318   2.344
    2MMT     Op 1764   1.547   3.033   2.190
    2MMT     Op 1765   1.584   3.307   2.187
    2MMT     Oh 1766   1.324   3.198   2.182
    2MMT     Ob 1767   1.194   3.372   2.406
    2MMT     Ob 1768   1.544   3.172   2.406
    2MMT     Ob 1769   1.451   3.416   2.381
    2MMT      H 1770   1.278   3.112   2.198
    2MMT    Alo 1771   1.225   0.046   2.078
    2MMT    Sit 1772   1.305   3.469   2.344
    2MMT    Sit 1773   1.306   0.177   2.349
    2MMT     Op 1774   1.287   3.478   2.187
    2MMT     Op 1775   1.322   0.168   2.190
    2MMT   Ohmg 1776   1.569   0.067   2.189
    2MMT     Ob 1777   1.444   0.232   2.409
    2MMT     Ob 1778   1.282   0.029   2.406
    2MMT     Ob 1779   1.185   0.276   2.383
    2MMT      H 1780   1.521   3.571   2.211
    2MMT    Alo 1781   1.479   0.196   2.082
    2MMT    Sit 1782   1.406   3.052   1.812
    2MMT    Sit 1783   1.399   0.065   1.811
    2MMT     Op 1784   1.426   3.043   1.970
    2MMT     Op 1785   1.384   0.068   1.970
    2MMT   Ohmg 1786   1.632   0.190   1.974
    2MMT     Ob 1787   1.781   0.003   1.752
    2MMT     Ob 1788   1.417   0.212   1.755
    2MMT     Ob 1789   1.521   3.554   1.774
    2MMT      H 1790   1.675   0.276   1.954
    2MMT    Alo 1791   1.226   3.334   2.077
    2MMT    Sit 1792   1.665   3.496   1.810
    2MMT    Sit 1793   1.657   3.203   1.806
    2MMT    Omg 1794   1.680   3.476   1.964
    2MMT     Op 1795   1.643   3.210   1.966
    2MMT     Oh 1796   1.389   3.320   1.975
    2MMT     Ob 1797   1.519   3.146   1.750
    2MMT     Ob 1798   1.683   3.347   1.745
    2MMT     Ob 1799   1.779   3.105   1.774
    2MMT      H 1800   1.436   3.404   1.954
    2MMT    Alo 1801   1.999   3.184   2.079
    2MMT    Sit 1802   2.077   3.017   2.345
    2MMT    Sit 1803   2.085   3.313   2.349
    2MMT     Op 1804   2.058   3.033   2.189
    2MMT     Op 1805   2.101   3.306   2.190
    2MMT     Oh 1806   1.840   3.197   2.180
    2MMT     Ob 1807   1.708   3.372   2.403
    2MMT     Ob 1808   2.061   3.167   2.407
    2MMT     Ob 1809   1.967   3.412   2.383
    2MMT      H 1810   1.791   3.114   2.200
    2MMT    Mgo 1811   1.740   0.048   2.078
    2MMT    Sit 1812   1.822   3.465   2.341
    2MMT    Sit 1813   1.828   0.177   2.345
    2MMT    Omg 1814   1.804   3.472   2.188
    2MMT    Omg 1815   1.848   0.174   2.192
    2MMT     Oh 1816   2.099   0.058   2.182
    2MMT     Ob 1817   1.966   0.232   2.408
    2MMT     Ob 1818   1.804   0.028   2.402
    2MMT     Ob 1819   1.704   0.272   2.385
    2MMT      H 1820   2.044   3.564   2.200
    2MMT    Alo 1821   1.996   0.196   2.078
    2MMT    Sit 1822   1.922   3.049   1.811
    2MMT    Sit 1823   1.917   0.068   1.810
    2MMT     Op 1824   1.938   3.040   1.969
    2MMT    Omg 1825   1.908   0.075   1.965
    2MMT     Oh 1826   2.164   0.182   1.976
    2MMT     Ob 1827   2.294   0.005   1.748
    2MMT     Ob 1828   1.937   0.213   1.750
    2MMT     Ob 1829   2.038   3.554   1.771
    2MMT      H 1830   2.207   0.269   1.957
    2MMT    Alo 1831   1.742   3.336   2.075
    2MMT    Sit 1832   2.181   3.498   1.809
    2MMT    Sit 1833   2.174   3.201   1.812
    2MMT     Op 1834   2.199   3.487   1.968
    2MMT     Op 1835   2.158   3.211   1.970
    2MMT     Oh 1836   1.906   3.319   1.973
    2MMT     Ob 1837   2.036   3.145   1.752
    2MMT     Ob 1838   2.201   3.348   1.753
    2MMT     Ob 1839   2.296   3.105   1.780
    2MMT      H 1840   1.948   3.408   1.958
    2MMT    Alo 1841   2.517   3.181   2.083
    2MMT    Sit 1842   2.594   3.020   2.353
    2MMT    Sit 1843   2.601   3.314   2.353
    2MMT     Op 1844   2.577   3.033   2.194
    2MMT     Op 1845   2.614   3.306   2.193
    2MMT     Oh 1846   2.353   3.195   2.184
    2MMT     Ob 1847   2.224   3.369   2.408
    2MMT     Ob 1848   2.575   3.169   2.412
    2MMT     Ob 1849   2.481   3.416   2.385
    2MMT      H 1850   2.309   3.108   2.199
    2MMT    Alo 1851   2.257   0.046   2.077
    2MMT    Sit 1852   2.335   3.466   2.349
    2MMT    Sit 1853   2.340   0.174   2.346
    2MMT     Op 1854   2.318   3.476   2.190
    2MMT     Op 1855   2.355   0.166   2.187
    2MMT     Oh 1856   2.607   0.061   2.178
    2MMT     Ob 1857   2.478   0.228   2.405
    2MMT     Ob 1858   2.312   0.029   2.406
    2MMT     Ob 1859   2.222   0.275   2.383
    2MMT      H 1860   2.565   3.565   2.211
    2MMT    Alo 1861   2.510   0.196   2.077
    2MMT    Sit 1862   2.439   3.046   1.814
    2MMT    Sit 1863   2.429   0.067   1.806
    2MMT     Op 1864   2.459   3.037   1.972
    2MMT     Op 1865   2.415   0.073   1.966
    2MMT     Oh 1866   2.673   0.186   1.973
    2MMT     Ob 1867   2.806   0.003   1.746
    2MMT     Ob 1868   2.448   0.213   1.748
    2MMT     Ob 1869   2.550   3.556   1.770
    2MMT      H 1870   2.726   0.269   1.965
    2MMT    Alo 1871   2.257   3.331   2.081
    2MMT    Sit 1872   2.693   3.498   1.808
    2MMT    Sit 1873   2.688   3.203   1.812
    2MMT     Op 1874   2.708   3.487   1.968
    2MMT     Op 1875   2.673   3.211   1.971
    2MMT     Oh 1876   2.419   3.318   1.978
    2MMT     Ob 1877   2.552   3.142   1.754
    2MMT     Ob 1878   2.705   3.349   1.752
    2MMT     Ob 1879   2.810   3.111   1.776
    2MMT      H 1880   2.469   3.400   1.957
    2MMT    Alo 1881   3.031   3.185   2.081
    2MMT    Sit 1882   0.013   3.026   2.346
    2MMT    Sit 1883   0.020   3.319   2.346
    2MMT    Omg 1884   3.093   3.044   2.193
    2MMT     Op 1885   0.030   3.313   2.186
    2MMT     Oh 1886   2.867   3.200   2.184
    2MMT     Ob 1887   2.739   3.371   2.410
    2MMT     Ob 1888   3.092   3.175   2.409
    2MMT     Ob 1889   2.996   3.419   2.383
    2MMT      H 1890   2.827   3.113   2.206
    2MMT    Alo 1891   2.772   0.046   2.077
    2MMT    Sit 1892   2.850   3.469   2.349
    2MMT    Sit 1893   2.853   0.175   2.344
    2MMT     Op 1894   2.828   3.478   2.190
    2MMT    Omg 1895   2.862   0.163   2.189
    2MMT   Ohmg 1896   0.042   0.058   2.182
    2MMT     Ob 1897   2.992   0.233   2.400
    2MMT     Ob 1898   2.826   0.030   2.407
    2MMT     Ob 1899   2.733   0.277   2.380
    2MMT      H 1900   3.095   3.562   2.213
    2MMT    Mgo 1901   3.029   0.195   2.075
    2MMT    Sit 1902   2.954   3.055   1.816
    2MMT    Sit 1903   2.941   0.064   1.808
    2MMT    Omg 1904   2.970   3.047   1.969
    2MMT    Omg 1905   2.923   0.065   1.962
    2MMT   Ohmg 1906   0.108   0.179   1.967
    2MMT     Ob 1907   0.229   0.005   1.744
    2MMT     Ob 1908   2.960   0.213   1.749
    2MMT     Ob 1909   3.067   3.559   1.767
    2MMT      H 1910   0.154   0.266   1.963
    2MMT    Alo 1911   2.772   3.333   2.081
    2MMT    Sit 1912   0.113   3.500   1.807
    2MMT    Sit 1913   0.109   3.204   1.807
    2MMT     Op 1914   0.130   3.489   1.964
    2MMT     Op 1915   0.093   3.214   1.966
    2MMT     Oh 1916   2.931   3.323   1.977
    2MMT     Ob 1917   3.068   3.143   1.749
    2MMT     Ob 1918   0.129   3.351   1.746
    2MMT     Ob 1919   0.230   3.108   1.770
    2MMT      H 1920   2.981   3.407   1.963
    3Na     Na+ 1921   2.759   2.602   1.349
    4Na     Na+ 1922   0.664   0.060   0.713
    5Na     Na+ 1923   1.463   3.390   0.737
    6Na     Na+ 1924   0.578   0.591   0.714
    7Na     Na+ 1925   0.157   0.774   1.524
    8Na     Na+ 1926   0.020   0.115   1.368
    9Na     Na+ 1927   2.077   1.226   0.753
   10Na     Na+ 1928   0.672   0.673   1.318
   11Na     Na+ 1929   2.902   3.322   0.727
   12Na     Na+ 1930   0.479   2.887   1.377
   13Na     Na+ 1931   2.575   0.582   1.343
   14Na     Na+ 1932   0.679   2.613   0.776
   15Na     Na+ 1933   2.761   2.120   0.745
   16Na     Na+ 1934   2.731   1.219   0.609
   17Na     Na+ 1935   2.116   3.500   1.342
   18Na     Na+ 1936   0.780   1.987   0.707
   19Na     Na+ 1937   0.661   3.456   3.544
   20Na     Na+ 1938   0.179   1.288   2.611
   21Na     Na+ 1939   2.229   2.172   2.799
   22Na     Na+ 1940   1.477   2.138   2.822
   23Na     Na+ 1941   2.083   0.100   2.858
   24Na     Na+ 1942   0.068   0.880   3.413
   25Na     Na+ 1943   0.021   2.682   3.269
   26Na     Na+ 1944   2.760   2.915   3.382
   27Na     Na+ 1945   2.853   1.451   3.428
   28Na     Na+ 1946   0.664   3.484   2.808
   29Na     Na+ 1947   1.353   1.428   2.901
   30Na     Na+ 1948   2.037   1.442   3.528
   31Na     Na+ 1949   1.420   2.844   3.428
   32Na     Na+ 1950   2.056   3.495   3.447
   33Na     Na+ 1951   0.767   0.240   2.758
   34Na     Na+ 1952   1.313   0.091   3.545
   35SOL     OW 1953   0.255   0.294   0.951
   35SOL    HW1 1954   0.300   0.261   1.033
   35SOL    HW2 1955   0.174   0.239   0.936
   36SOL     OW 1956   0.071   0.356   0.636
   36SOL    HW1 1957   3.080   0.394   0.661
   36SOL    HW2 1958   0.059   0.310   0.549
   37SOL     OW 1959   0.573   1.187   1.123
   37SOL    HW1 1960   0.504   1.199   1.054
   37SOL    HW2 1961   0.600   1.279   1.154
   38SOL     OW 1962   1.648   0.609   0.854
   38SOL    HW1 1963   1.712   0.675   0.813
   38SOL    HW2 1964   1.700   0.564   0.927
   39SOL     OW 1965   1.081   0.645   0.691
   39SOL    HW1 1966   1.134   0.719   0.649
   39SOL    HW2 1967   1.058   0.677   0.782
   40SOL     OW 1968   0.764   1.053   1.004
   40SOL    HW1 1969   0.693   1.092   1.062
   40SOL    HW2 1970   0.799   1.134   0.956
   41SOL     OW 1971   0.675   0.901   0.643
   41SOL    HW1 1972   0.760   0.901   0.695
   41SOL    HW2 1973   0.628   0.987   0.665
   42SOL     OW 1974   1.536   0.424   0.701
   42SOL    HW1 1975   1.452   0.452   0.654
   42SOL    HW2 1976   1.571   0.503   0.753
   43SOL     OW 1977   0.319   1.558   0.512
   43SOL    HW1 1978   0.307   1.652   0.542
   43SOL    HW2 1979   0.316   1.563   0.413
   44SOL     OW 1980   0.307   1.311   0.597
   44SOL    HW1 1981   0.321   1.403   0.559
   44SOL    HW2 1982   0.212   1.289   0.585
   45SOL     OW 1983   0.294   1.012   0.848
   45SOL    HW1 1984   0.292   0.918   0.881
   45SOL    HW2 1985   0.239   1.071   0.907
   46SOL     OW 1986   0.629   1.661   1.338
   46SOL    HW1 1987   0.549   1.640   1.394
   46SOL    HW2 1988   0.662   1.750   1.369
   47SOL     OW 1989   0.189   0.609   0.603
   47SOL    HW1 1990   0.123   0.538   0.580
   47SOL    HW2 1991   0.145   0.677   0.658
   48SOL     OW 1992   1.606   0.843   0.630
   48SOL    HW1 1993   1.696   0.804   0.616
   48SOL    HW2 1994   1.597   0.913   0.557
   49SOL     OW 1995   1.615   1.050   0.474
   49SOL    HW1 1996   1.668   1.076   0.394
   49SOL    HW2 1997   1.607   1.132   0.532
   50SOL     OW 1998   0.245   0.861   1.229
   50SOL    HW1 1999   0.325   0.909   1.196
   50SOL    HW2 2000   0.176   0.871   1.159
   51SOL     OW 2001   1.111   1.665   1.496
   51SOL    HW1 2002   1.136   1.745   1.441
   51SOL    HW2 2003   1.166   1.588   1.466
   52SOL     OW 2004   1.395   1.332   0.924
   52SOL    HW1 2005   1.344   1.322   1.007
   52SOL    HW2 2006   1.395   1.240   0.883
   53SOL     OW 2007   1.584   1.579   0.594
   53SOL    HW1 2008   1.588   1.562   0.496
   53SOL    HW2 2009   1.527   1.509   0.633
   54SOL     OW 2010   1.236   0.351   0.902
   54SOL    HW1 2011   1.143   0.317   0.910
   54SOL    HW2 2012   1.289   0.301   0.971
   55SOL     OW 2013   1.343   0.425   1.526
   55SOL    HW1 2014   1.317   0.491   1.595
   55SOL    HW2 2015   1.437   0.403   1.546
   56SOL     OW 2016   0.945   0.837   1.487
   56SOL    HW1 2017   1.009   0.771   1.452
   56SOL    HW2 2018   0.901   0.878   1.409
   57SOL     OW 2019   1.332   1.105   0.580
   57SOL    HW1 2020   1.399   1.077   0.511
   57SOL    HW2 2021   1.256   1.141   0.527
   58SOL     OW 2022   0.406   1.677   0.834
   58SOL    HW1 2023   0.446   1.585   0.844
   58SOL    HW2 2024   0.483   1.740   0.836
   59SOL     OW 2025   1.727   1.007   0.829
   59SOL    HW1 2026   1.663   0.976   0.759
   59SOL    HW2 2027   1.674   1.017   0.914
   60SOL     OW 2028   1.213   1.420   1.411
   60SOL    HW1 2029   1.204   1.376   1.499
   60SOL    HW2 2030   1.125   1.418   1.367
   61SOL     OW 2031   1.407   0.697   0.726
   61SOL    HW1 2032   1.438   0.627   0.788
   61SOL    HW2 2033   1.489   0.744   0.692
   62SOL     OW 2034   0.206   0.256   1.424
   62SOL    HW1 2035   0.191   0.353   1.429
   62SOL    HW2 2036   0.264   0.233   1.502
   63SOL     OW 2037   0.307   1.664   1.168
   63SOL    HW1 2038   0.361   1.598   1.219
   63SOL    HW2 2039   0.291   1.627   1.078
   64SOL     OW 2040   0.937   1.573   0.872
   64SOL    HW1 2041   1.025   1.527   0.878
   64SOL    HW2 2042   0.883   1.526   0.802
   65SOL     OW 2043   0.445   0.640   0.547
   65SOL    HW1 2044   0.482   0.641   0.454
   65SOL    HW2 2045   0.345   0.643   0.540
   66SOL     OW 2046   0.888   1.414   1.121
   66SOL    HW1 2047   0.868   1.375   1.031
   66SOL    HW2 2048   0.955   1.357   1.167
   67SOL     OW 2049   1.284   0.557   1.309
   67SOL    HW1 2050   1.317   0.506   1.390
   67SOL    HW2 2051   1.326   0.648   1.316
   68SOL     OW 2052   0.806   1.288   0.893
   68SOL    HW1 2053   0.903   1.284   0.865
   68SOL    HW2 2054   0.758   1.310   0.809
   69SOL     OW 2055   0.893   0.486   0.887
   69SOL    HW1 2056   0.889   0.484   0.788
   69SOL    HW2 2057   0.939   0.401   0.914
   70SOL     OW 2058   0.582   0.165   0.526
   70SOL    HW1 2059   0.483   0.151   0.528
   70SOL    HW2 2060   0.600   0.218   0.444
   71SOL     OW 2061   1.028   0.619   1.340
   71SOL    HW1 2062   1.004   0.555   1.411
   71SOL    HW2 2063   1.126   0.605   1.324
   72SOL     OW 2064   1.191   1.466   0.773
   72SOL    HW1 2065   1.211   1.528   0.699
   72SOL    HW2 2066   1.276   1.446   0.820
   73SOL     OW 2067   0.509   1.099   0.718
   73SOL    HW1 2068   0.428   1.069   0.769
   73SOL    HW2 2069   0.481   1.104   0.624
   74SOL     OW 2070   0.600   0.208   1.078
   74SOL    HW1 2071   0.651   0.154   1.142
   74SOL    HW2 2072   0.511   0.226   1.118
   75SOL     OW 2073   0.838   0.443   0.617
   75SOL    HW1 2074   0.856   0.525   0.565
   75SOL    HW2 2075   0.901   0.375   0.581
   76SOL     OW 2076   0.951   0.057   0.743
   76SOL    HW1 2077   0.958   0.043   0.645
   76SOL    HW2 2078   0.982   3.559   0.784
   77SOL     OW 2079   1.380   1.081   0.836
   77SOL    HW1 2080   1.320   1.003   0.849
   77SOL    HW2 2081   1.379   1.097   0.736
   78SOL     OW 2082   1.609   1.236   0.654
   78SOL    HW1 2083   1.686   1.223   0.715
   78SOL    HW2 2084   1.538   1.281   0.706
   79SOL     OW 2085   1.665   1.144   1.471
   79SOL    HW1 2086   1.760   1.115   1.464
   79SOL    HW2 2087   1.671   1.236   1.509
   80SOL     OW 2088   1.060   1.248   1.257
   80SOL    HW1 2089   0.975   1.222   1.305
   80SOL    HW2 2090   1.135   1.221   1.315
   81SOL     OW 2091   1.066   1.090   1.046
   81SOL    HW1 2092   1.057   1.155   1.122
   81SOL    HW2 2093   1.065   1.144   0.962
   82SOL     OW 2094   1.562   1.031   1.035
   82SOL    HW1 2095   1.552   1.098   1.108
   82SOL    HW2 2096   1.483   1.043   0.974
   83SOL     OW 2097   0.113   1.468   1.241
   83SOL    HW1 2098   0.100   1.563   1.217
   83SOL    HW2 2099   0.211   1.458   1.258
   84SOL     OW 2100   0.379   1.402   1.238
   84SOL    HW1 2101   0.374   1.354   1.153
   84SOL    HW2 2102   0.477   1.422   1.252
   85SOL     OW 2103   0.476   0.694   1.474
   85SOL    HW1 2104   0.487   0.788   1.502
   85SOL    HW2 2105   0.486   0.639   1.556
   86SOL     OW 2106   1.495   0.695   1.533
   86SOL    HW1 2107   1.427   0.758   1.566
   86SOL    HW2 2108   1.576   0.750   1.513
   87SOL     OW 2109   0.597   0.819   1.000
   87SOL    HW1 2110   0.667   0.872   0.953
   87SOL    HW2 2111   0.572   0.874   1.078
   88SOL     OW 2112   1.310   0.810   0.988
   88SOL    HW1 2113   1.239   0.797   0.920
   88SOL    HW2 2114   1.345   0.720   1.009
   89SOL     OW 2115   0.345   0.201   1.185
   89SOL    HW1 2116   0.325   0.235   1.276
   89SOL    HW2 2117   0.361   0.104   1.192
   90SOL     OW 2118   0.109   1.199   1.228
   90SOL    HW1 2119   0.155   1.170   1.310
   90SOL    HW2 2120   0.102   1.299   1.236
   91SOL     OW 2121   0.335   0.120   0.637
   91SOL    HW1 2122   0.339   0.219   0.637
   91SOL    HW2 2123   0.303   0.095   0.727
   92SOL     OW 2124   1.021   0.714   0.954
   92SOL    HW1 2125   1.047   0.721   1.049
   92SOL    HW2 2126   0.978   0.625   0.941
   93SOL     OW 2127   0.118   1.369   1.493
   93SOL    HW1 2128   0.082   1.418   1.415
   93SOL    HW2 2129   0.132   1.434   1.566
   94SOL     OW 2130   1.055   1.243   0.828
   94SOL    HW1 2131   1.048   1.172   0.756
   94SOL    HW2 2132   1.107   1.319   0.789
   95SOL     OW 2133   0.349   0.755   0.920
   95SOL    HW1 2134   0.444   0.785   0.926
   95SOL    HW2 2135   0.342   0.669   0.966
   96SOL     OW 2136   1.100   0.246   1.384
   96SOL    HW1 2137   1.139   0.257   1.475
   96SOL    HW2 2138   1.170   0.272   1.321
   97SOL     OW 2139   0.147   1.683   0.909
   97SOL    HW1 2140   0.104   1.599   0.876
   97SOL    HW2 2141   0.241   1.682   0.875
   98SOL     OW 2142   0.537   1.453   0.882
   98SOL    HW1 2143   0.627   1.490   0.902
   98SOL    HW2 2144   0.550   1.369   0.831
   99SOL     OW 2145   0.126   0.545   1.055
   99SOL    HW1 2146   0.176   0.472   1.010
   99SOL    HW2 2147   0.122   0.527   1.151
  100SOL     OW 2148   0.677   0.480   1.180
  100SOL    HW1 2149   0.658   0.383   1.183
  100SOL    HW2 2150   0.746   0.491   1.109
  101SOL     OW 2151   0.921   1.519   1.375
  101SOL    HW1 2152   0.897   1.544   1.283
  101SOL    HW2 2153   0.963   1.598   1.419
  102SOL     OW 2154   1.289   1.012   1.162
  102SOL    HW1 2155   1.316   0.937   1.101
  102SOL    HW2 2156   1.201   1.042   1.126
  103SOL     OW 2157   1.208   1.600   1.061
  103SOL    HW1 2158   1.302   1.612   1.035
  103SOL    HW2 2159   1.199   1.521   1.118
  104SOL     OW 2160   0.128   1.180   0.966
  104SOL    HW1 2161   0.125   1.191   1.066
  104SOL    HW2 2162   0.039   1.149   0.938
  105SOL     OW 2163   1.683   0.132   0.543
  105SOL    HW1 2164   1.728   0.140   0.455
  105SOL    HW2 2165   1.600   0.082   0.530
  106SOL     OW 2166   1.228   0.870   0.655
  106SOL    HW1 2167   1.300   0.801   0.672
  106SOL    HW2 2168   1.273   0.948   0.613
  107SOL     OW 2169   0.820   1.172   1.346
  107SOL    HW1 2170   0.805   1.216   1.434
  107SOL    HW2 2171   0.745   1.206   1.291
  108SOL     OW 2172   1.604   1.573   1.316
  108SOL    HW1 2173   1.622   1.581   1.220
  108SOL    HW2 2174   1.561   1.658   1.346
  109SOL     OW 2175   1.747   0.143   0.917
  109SOL    HW1 2176   1.785   0.096   0.839
  109SOL    HW2 2177   1.656   0.175   0.887
  110SOL     OW 2178   0.350   0.373   0.713
  110SOL    HW1 2179   0.269   0.403   0.664
  110SOL    HW2 2180   0.319   0.349   0.805
  111SOL     OW 2181   0.801   0.914   1.269
  111SOL    HW1 2182   0.855   0.930   1.187
  111SOL    HW2 2183   0.801   1.004   1.315
  112SOL     OW 2184   0.399   1.160   1.390
  112SOL    HW1 2185   0.425   1.254   1.373
  112SOL    HW2 2186   0.320   1.162   1.446
  113SOL     OW 2187   1.533   1.213   1.233
  113SOL    HW1 2188   1.590   1.186   1.311
  113SOL    HW2 2189   1.459   1.265   1.271
  114SOL     OW 2190   1.019   1.036   0.671
  114SOL    HW1 2191   0.950   0.980   0.716
  114SOL    HW2 2192   1.091   0.972   0.644
  115SOL     OW 2193   0.995   0.237   0.937
  115SOL    HW1 2194   0.985   0.181   0.854
  115SOL    HW2 2195   1.002   0.174   1.013
  116SOL     OW 2196   1.610   0.387   1.281
  116SOL    HW1 2197   1.672   0.464   1.296
  116SOL    HW2 2198   1.666   0.313   1.245
  117SOL     OW 2199   0.693   0.212   1.391
  117SOL    HW1 2200   0.789   0.196   1.371
  117SOL    HW2 2201   0.685   0.211   1.489
  118SOL     OW 2202   1.370   0.806   1.307
  118SOL    HW1 2203   1.335   0.894   1.273
  118SOL    HW2 2204   1.468   0.815   1.315
  119SOL     OW 2205   0.403   1.597   1.465
  119SOL    HW1 2206   0.338   1.660   1.504
  119SOL    HW2 2207   0.423   1.528   1.533
  120SOL     OW 2208   1.631   0.815   1.174
  120SOL    HW1 2209   1.584   0.736   1.137
  120SOL    HW2 2210   1.604   0.894   1.118
  121SOL     OW 2211   1.700   0.290   1.519
  121SOL    HW1 2212   1.656   0.345   1.448
  121SOL    HW2 2213   1.648   0.301   1.602
  122SOL     OW 2214   1.675   0.869   1.433
  122SOL    HW1 2215   1.659   0.965   1.455
  122SOL    HW2 2216   1.668   0.858   1.334
  123SOL     OW 2217   1.386   1.688   1.531
  123SOL    HW1 2218   1.297   1.703   1.574
  123SOL    HW2 2219   1.419   1.600   1.561
  124SOL     OW 2220   0.863   0.885   0.829
  124SOL    HW1 2221   0.928   0.824   0.874
  124SOL    HW2 2222   0.837   0.954   0.898
  125SOL     OW 2223   0.043   1.438   0.834
  125SOL    HW1 2224   0.044   1.429   0.735
  125SOL    HW2 2225   0.092   1.360   0.871
  126SOL     OW 2226   0.120   1.115   0.648
  126SOL    HW1 2227   0.171   1.090   0.729
  126SOL    HW2 2228   0.185   1.113   0.574
  127SOL     OW 2229   0.655   1.316   1.504
  127SOL    HW1 2230   0.610   1.258   1.571
  127SOL    HW2 2231   0.703   1.387   1.552
  128SOL     OW 2232   1.765   0.178   1.183
  128SOL    HW1 2233   1.714   0.103   1.221
  128SOL    HW2 2234   1.749   0.179   1.084
  129SOL     OW 2235   1.640   1.391   1.036
  129SOL    HW1 2236   1.548   1.371   1.003
  129SOL    HW2 2237   1.658   1.327   1.111
  130SOL     OW 2238   0.796   1.450   0.675
  130SOL    HW1 2239   0.846   1.484   0.593
  130SOL    HW2 2240   0.711   1.419   0.636
  131SOL     OW 2241   1.371   0.219   1.090
  131SOL    HW1 2242   1.427   0.154   1.138
  131SOL    HW2 2243   1.361   0.298   1.149
  132SOL     OW 2244   0.979   1.755   1.094
  132SOL    HW1 2245   0.929   1.688   1.042
  132SOL    HW2 2246   1.072   1.721   1.100
  133SOL     OW 2247   0.641   1.437   1.204
  133SOL    HW1 2248   0.641   1.521   1.260
  133SOL    HW2 2249   0.737   1.430   1.173
  134SOL     OW 2250   1.260   0.438   0.653
  134SOL    HW1 2251   1.200   0.517   0.650
  134SOL    HW2 2252   1.256   0.404   0.747
  135SOL     OW 2253   1.504   0.196   0.836
  135SOL    HW1 2254   1.443   0.222   0.910
  135SOL    HW2 2255   1.512   0.277   0.776
  136SOL     OW 2256   0.864   1.532   0.444
  136SOL    HW1 2257   0.849   1.464   0.372
  136SOL    HW2 2258   0.829   1.618   0.408
  137SOL     OW 2259   1.984   0.264   0.938
  137SOL    HW1 2260   2.008   0.237   1.030
  137SOL    HW2 2261   1.889   0.237   0.923
  138SOL     OW 2262   1.791   0.362   0.636
  138SOL    HW1 2263   1.704   0.399   0.667
  138SOL    HW2 2264   1.765   0.276   0.593
  139SOL     OW 2265   2.279   1.182   1.111
  139SOL    HW1 2266   2.184   1.193   1.083
  139SOL    HW2 2267   2.297   1.250   1.180
  140SOL     OW 2268   2.826   0.652   0.702
  140SOL    HW1 2269   2.837   0.739   0.656
  140SOL    HW2 2270   2.758   0.666   0.771
  141SOL     OW 2271   2.478   1.066   1.000
  141SOL    HW1 2272   2.398   1.103   1.051
  141SOL    HW2 2273   2.511   1.144   0.951
  142SOL     OW 2274   2.384   1.003   0.657
  142SOL    HW1 2275   2.454   0.948   0.704
  142SOL    HW2 2276   2.297   0.956   0.664
  143SOL     OW 2277   2.057   1.304   1.000
  143SOL    HW1 2278   1.960   1.323   0.996
  143SOL    HW2 2279   2.108   1.380   0.957
  144SOL     OW 2280   2.165   0.350   1.406
  144SOL    HW1 2281   2.250   0.336   1.454
  144SOL    HW2 2282   2.093   0.349   1.474
  145SOL     OW 2283   1.966   1.344   0.592
  145SOL    HW1 2284   1.971   1.429   0.541
  145SOL    HW2 2285   1.893   1.292   0.551
  146SOL     OW 2286   2.007   1.042   0.866
  146SOL    HW1 2287   2.027   0.946   0.883
  146SOL    HW2 2288   1.914   1.056   0.897
  147SOL     OW 2289   1.909   0.598   0.559
  147SOL    HW1 2290   1.855   0.515   0.571
  147SOL    HW2 2291   1.876   0.665   0.625
  148SOL     OW 2292   2.315   1.257   0.693
  148SOL    HW1 2293   2.337   1.160   0.676
  148SOL    HW2 2294   2.315   1.301   0.605
  149SOL     OW 2295   2.491   1.722   0.570
  149SOL    HW1 2296   2.536   1.791   0.514
  149SOL    HW2 2297   2.402   1.707   0.531
  150SOL     OW 2298   1.923   0.918   1.180
  150SOL    HW1 2299   2.010   0.870   1.168
  150SOL    HW2 2300   1.849   0.856   1.161
  151SOL     OW 2301   2.828   1.662   1.454
  151SOL    HW1 2302   2.893   1.735   1.454
  151SOL    HW2 2303   2.868   1.587   1.503
  152SOL     OW 2304   2.666   0.769   1.438
  152SOL    HW1 2305   2.738   0.802   1.497
  152SOL    HW2 2306   2.616   0.851   1.409
  153SOL     OW 2307   2.668   0.424   1.180
  153SOL    HW1 2308   2.573   0.404   1.206
  153SOL    HW2 2309   2.673   0.386   1.089
  154SOL     OW 2310   1.842   0.773   0.756
  154SOL    HW1 2311   1.933   0.768   0.799
  154SOL    HW2 2312   1.806   0.863   0.782
  155SOL     OW 2313   1.872   1.679   1.491
  155SOL    HW1 2314   1.855   1.686   1.588
  155SOL    HW2 2315   1.799   1.726   1.446
  156SOL     OW 2316   2.271   0.196   0.849
  156SOL    HW1 2317   2.278   0.231   0.942
  156SOL    HW2 2318   2.275   0.274   0.788
  157SOL     OW 2319   2.089   1.679   0.803
  157SOL    HW1 2320   2.147   1.600   0.819
  157SOL    HW2 2321   2.147   1.760   0.803
  158SOL     OW 2322   2.900   1.389   1.395
  158SOL    HW1 2323   2.904   1.380   1.493
  158SOL    HW2 2324   2.818   1.438   1.371
  159SOL     OW 2325   2.174   1.108   1.607
  159SOL    HW1 2326   2.170   1.156   1.519
  159SOL    HW2 2327   2.118   1.158   1.670
  160SOL     OW 2328   1.985   1.663   1.164
  160SOL    HW1 2329   2.020   1.585   1.216
  160SOL    HW2 2330   1.951   1.630   1.078
  161SOL     OW 2331   2.628   1.550   0.874
  161SOL    HW1 2332   2.721   1.516   0.871
  161SOL    HW2 2333   2.584   1.527   0.789
  162SOL     OW 2334   2.547   1.379   1.130
  162SOL    HW1 2335   2.568   1.427   1.047
  162SOL    HW2 2336   2.630   1.340   1.168
  163SOL     OW 2337   3.031   0.568   1.370
  163SOL    HW1 2338   2.998   0.542   1.459
  163SOL    HW2 2339   3.002   0.661   1.353
  164SOL     OW 2340   2.618   0.467   0.887
  164SOL    HW1 2341   2.576   0.482   0.796
  164SOL    HW2 2342   2.662   0.380   0.875
  165SOL     OW 2343   2.282   0.081   0.562
  165SOL    HW1 2344   2.184   0.092   0.575
  165SOL    HW2 2345   2.306   0.133   0.482
  166SOL     OW 2346   2.860   1.440   0.762
  166SOL    HW1 2347   2.888   1.516   0.702
  166SOL    HW2 2348   2.935   1.434   0.829
  167SOL     OW 2349   2.930   1.654   0.616
  167SOL    HW1 2350   2.962   1.683   0.527
  167SOL    HW2 2351   2.858   1.716   0.644
  168SOL     OW 2352   1.820   0.555   1.315
  168SOL    HW1 2353   1.918   0.547   1.296
  168SOL    HW2 2354   1.810   0.612   1.396
  169SOL     OW 2355   2.297   0.236   1.124
  169SOL    HW1 2356   2.338   0.146   1.125
  169SOL    HW2 2357   2.201   0.225   1.148
  170SOL     OW 2358   2.555   0.445   0.626
  170SOL    HW1 2359   2.514   0.515   0.570
  170SOL    HW2 2360   2.570   0.368   0.568
  171SOL     OW 2361   2.688   0.102   0.752
  171SOL    HW1 2362   2.624   0.115   0.679
  171SOL    HW2 2363   2.687   0.006   0.775
  172SOL     OW 2364   2.732   1.220   1.267
  172SOL    HW1 2365   2.658   1.220   1.332
  172SOL    HW2 2366   2.815   1.234   1.320
  173SOL     OW 2367   2.593   0.176   1.298
  173SOL    HW1 2368   2.588   0.095   1.243
  173SOL    HW2 2369   2.674   0.171   1.354
  174SOL     OW 2370   2.636   1.051   1.548
  174SOL    HW1 2371   2.570   1.099   1.605
  174SOL    HW2 2372   2.691   0.998   1.610
  175SOL     OW 2373   2.144   0.772   1.180
  175SOL    HW1 2374   2.214   0.785   1.251
  175SOL    HW2 2375   2.105   0.681   1.200
  176SOL     OW 2376   2.939   0.365   1.204
  176SOL    HW1 2377   2.978   0.449   1.240
  176SOL    HW2 2378   2.852   0.389   1.163
  177SOL     OW 2379   2.113   1.058   0.525
  177SOL    HW1 2380   2.095   1.127   0.457
  177SOL    HW2 2381   2.098   0.971   0.480
  178SOL     OW 2382   2.306   0.520   0.845
  178SOL    HW1 2383   2.298   0.555   0.751
  178SOL    HW2 2384   2.363   0.585   0.891
  179SOL     OW 2385   2.924   1.338   1.089
  179SOL    HW1 2386   2.987   1.352   1.164
  179SOL    HW2 2387   2.856   1.274   1.121
  180SOL     OW 2388   2.080   1.428   1.242
  180SOL    HW1 2389   2.081   1.369   1.162
  180SOL    HW2 2390   2.172   1.455   1.266
  181SOL     OW 2391   2.317   0.816   0.982
  181SOL    HW1 2392   2.348   0.910   0.982
  181SOL    HW2 2393   2.252   0.806   1.058
  182SOL     OW 2394   2.996   0.792   1.019
  182SOL    HW1 2395   2.944   0.818   0.938
  182SOL    HW2 2396   3.054   0.717   0.994
  183SOL     OW 2397   2.042   0.181   1.196
  183SOL    HW1 2398   2.013   0.253   1.257
  183SOL    HW2 2399   1.958   0.132   1.174
  184SOL     OW 2400   1.832   1.243   1.198
  184SOL    HW1 2401   1.846   1.171   1.264
  184SOL    HW2 2402   1.837   1.328   1.248
  185SOL     OW 2403   2.019   0.106   0.648
  185SOL    HW1 2404   2.001   0.203   0.642
  185SOL    HW2 2405   2.063   0.091   0.735
  186SOL     OW 2406   2.698   0.715   0.946
  186SOL    HW1 2407   2.725   0.727   1.039
  186SOL    HW2 2408   2.665   0.621   0.934
  187SOL     OW 2409   1.789   1.392   1.476
  187SOL    HW1 2410   1.749   1.469   1.428
  187SOL    HW2 2411   1.835   1.428   1.556
  188SOL     OW 2412   2.064   0.772   0.894
  188SOL    HW1 2413   2.162   0.787   0.901
  188SOL    HW2 2414   2.049   0.681   0.932
  189SOL     OW 2415   2.071   0.505   0.959
  189SOL    HW1 2416   2.034   0.414   0.933
  189SOL    HW2 2417   2.157   0.511   0.907
  190SOL     OW 2418   2.865   0.197   1.398
  190SOL    HW1 2419   2.834   0.244   1.479
  190SOL    HW2 2420   2.870   0.264   1.323
  191SOL     OW 2421   1.854   1.642   0.909
  191SOL    HW1 2422   1.826   1.557   0.866
  191SOL    HW2 2423   1.941   1.668   0.864
  192SOL     OW 2424   2.228   1.449   0.865
  192SOL    HW1 2425   2.289   1.524   0.897
  192SOL    HW2 2426   2.285   1.385   0.813
  193SOL     OW 2427   1.803   0.511   1.045
  193SOL    HW1 2428   1.899   0.512   1.019
  193SOL    HW2 2429   1.798   0.529   1.143
  194SOL     OW 2430   3.052   0.882   1.485
  194SOL    HW1 2431   3.033   0.932   1.569
  194SOL    HW2 2432   3.012   0.935   1.412
  195SOL     OW 2433   2.409   0.467   1.209
  195SOL    HW1 2434   2.365   0.378   1.192
  195SOL    HW2 2435   2.383   0.523   1.132
  196SOL     OW 2436   1.910   1.054   1.402
  196SOL    HW1 2437   1.929   0.991   1.476
  196SOL    HW2 2438   1.915   1.001   1.316
  197SOL     OW 2439   2.901   1.610   1.053
  197SOL    HW1 2440   2.992   1.630   1.022
  197SOL    HW2 2441   2.897   1.514   1.075
  198SOL     OW 2442   2.405   1.533   1.563
  198SOL    HW1 2443   2.335   1.595   1.596
  198SOL    HW2 2444   2.466   1.583   1.506
  199SOL     OW 2445   2.956   0.890   0.657
  199SOL    HW1 2446   3.007   0.807   0.644
  199SOL    HW2 2447   2.987   0.954   0.588
  200SOL     OW 2448   2.537   0.956   1.280
  200SOL    HW1 2449   2.536   0.984   1.185
  200SOL    HW2 2450   2.525   1.038   1.335
  201SOL     OW 2451   2.126   1.206   1.372
  201SOL    HW1 2452   2.092   1.295   1.345
  201SOL    HW2 2453   2.045   1.148   1.384
  202SOL     OW 2454   2.350   0.769   1.345
  202SOL    HW1 2455   2.391   0.860   1.348
  202SOL    HW2 2456   2.361   0.728   1.434
  203SOL     OW 2457   2.138   1.615   1.454
  203SOL    HW1 2458   2.044   1.648   1.455
  203SOL    HW2 2459   2.143   1.539   1.516
  204SOL     OW 2460   2.301   0.707   0.640
  204SOL    HW1 2461   2.354   0.776   0.595
  204SOL    HW2 2462   2.227   0.681   0.580
  205SOL     OW 2463   2.375   1.656   0.922
  205SOL    HW1 2464   2.345   1.746   0.888
  205SOL    HW2 2465   2.474   1.654   0.923
  206SOL     OW 2466   2.577   0.908   0.811
  206SOL    HW1 2467   2.623   0.829   0.854
  206SOL    HW2 2468   2.535   0.957   0.887
  207SOL     OW 2469   1.776   1.402   0.814
  207SOL    HW1 2470   1.719   1.455   0.753
  207SOL    HW2 2471   1.728   1.394   0.902
  208SOL     OW 2472   2.178   0.382   0.585
  208SOL    HW1 2473   2.185   0.370   0.488
  208SOL    HW2 2474   2.088   0.419   0.603
  209SOL     OW 2475   2.070   0.523   1.226
  209SOL    HW1 2476   2.121   0.458   1.283
  209SOL    HW2 2477   2.085   0.501   1.130
  210SOL     OW 2478   0.260   1.963   0.934
  210SOL    HW1 2479   0.302   1.946   1.024
  210SOL    HW2 2480   0.195   1.890   0.921
  211SOL     OW 2481   0.093   2.061   0.629
  211SOL    HW1 2482   0.016   2.071   0.689
  211SOL    HW2 2483   0.076   1.984   0.570
  212SOL     OW 2484   0.580   2.882   1.141
  212SOL    HW1 2485   0.500   2.887   1.081
  212SOL    HW2 2486   0.619   2.974   1.139
  213SOL     OW 2487   1.463   3.115   0.674
  213SOL    HW1 2488   1.453   3.077   0.768
  213SOL    HW2 2489   1.402   3.063   0.616
  214SOL     OW 2490   0.745   2.744   0.962
  214SOL    HW1 2491   0.704   2.775   1.047
  214SOL    HW2 2492   0.808   2.818   0.938
  215SOL     OW 2493   0.364   3.005   1.015
  215SOL    HW1 2494   0.289   2.967   0.962
  215SOL    HW2 2495   0.420   3.064   0.955
  216SOL     OW 2496   1.425   3.088   1.259
  216SOL    HW1 2497   1.470   3.165   1.304
  216SOL    HW2 2498   1.390   3.032   1.332
  217SOL     OW 2499   0.490   2.080   1.407
  217SOL    HW1 2500   0.569   2.020   1.415
  217SOL    HW2 2501   0.410   2.029   1.438
  218SOL     OW 2502   0.293   3.257   0.516
  218SOL    HW1 2503   0.326   3.343   0.551
  218SOL    HW2 2504   0.305   3.259   0.417
  219SOL     OW 2505   1.122   2.921   1.569
  219SOL    HW1 2506   1.153   2.939   1.661
  219SOL    HW2 2507   1.070   2.838   1.573
  220SOL     OW 2508   0.310   3.010   0.595
  220SOL    HW1 2509   0.310   3.104   0.559
  220SOL    HW2 2510   0.219   2.976   0.579
  221SOL     OW 2511   0.633   3.372   1.344
  221SOL    HW1 2512   0.554   3.351   1.401
  221SOL    HW2 2513   0.696   3.427   1.396
  222SOL     OW 2514   1.531   1.829   1.363
  222SOL    HW1 2515   1.530   1.928   1.350
  222SOL    HW2 2516   1.483   1.807   1.448
  223SOL     OW 2517   0.224   2.293   0.583
  223SOL    HW1 2518   0.172   2.208   0.585
  223SOL    HW2 2519   0.172   2.359   0.635
  224SOL     OW 2520   0.625   2.975   0.683
  224SOL    HW1 2521   0.581   2.889   0.708
  224SOL    HW2 2522   0.583   3.002   0.597
  225SOL     OW 2523   1.260   2.825   1.304
  225SOL    HW1 2524   1.287   2.737   1.268
  225SOL    HW2 2525   1.304   2.829   1.395
  226SOL     OW 2526   0.866   3.439   0.565
  226SOL    HW1 2527   0.881   3.459   0.470
  226SOL    HW2 2528   0.768   3.419   0.572
  227SOL     OW 2529   0.231   2.607   1.181
  227SOL    HW1 2530   0.322   2.563   1.175
  227SOL    HW2 2531   0.166   2.535   1.170
  228SOL     OW 2532   1.417   3.024   0.909
  228SOL    HW1 2533   1.356   3.033   0.989
  228SOL    HW2 2534   1.414   2.925   0.890
  229SOL     OW 2535   1.609   3.311   0.587
  229SOL    HW1 2536   1.623   3.315   0.488
  229SOL    HW2 2537   1.572   3.220   0.606
  230SOL     OW 2538   1.214   2.032   0.907
  230SOL    HW1 2539   1.147   1.967   0.875
  230SOL    HW2 2540   1.275   1.980   0.967
  231SOL     OW 2541   0.803   2.276   1.397
  231SOL    HW1 2542   0.773   2.250   1.487
  231SOL    HW2 2543   0.762   2.210   1.332
  232SOL     OW 2544   0.963   2.564   1.480
  232SOL    HW1 2545   1.023   2.485   1.484
  232SOL    HW2 2546   0.899   2.551   1.407
  233SOL     OW 2547   0.140   2.472   0.765
  233SOL    HW1 2548   0.225   2.437   0.803
  233SOL    HW2 2549   0.119   2.558   0.807
  234SOL     OW 2550   1.300   2.767   0.579
  234SOL    HW1 2551   1.384   2.720   0.555
  234SOL    HW2 2552   1.272   2.814   0.497
  235SOL     OW 2553   0.589   1.900   0.862
  235SOL    HW1 2554   0.563   1.896   0.957
  235SOL    HW2 2555   0.555   1.985   0.825
  236SOL     OW 2556   1.193   3.136   1.426
  236SOL    HW1 2557   1.174   3.063   1.491
  236SOL    HW2 2558   1.136   3.119   1.349
  237SOL     OW 2559   1.386   2.410   0.730
  237SOL    HW1 2560   1.407   2.339   0.796
  237SOL    HW2 2561   1.472   2.439   0.691
  238SOL     OW 2562   0.242   1.964   1.420
  238SOL    HW1 2563   0.183   2.041   1.401
  238SOL    HW2 2564   0.228   1.936   1.513
  239SOL     OW 2565   0.304   3.371   1.175
  239SOL    HW1 2566   0.362   3.321   1.238
  239SOL    HW2 2567   0.288   3.314   1.097
  240SOL     OW 2568   0.932   3.280   0.870
  240SOL    HW1 2569   1.019   3.238   0.887
  240SOL    HW2 2570   0.895   3.235   0.788
  241SOL     OW 2571   0.883   3.117   1.125
  241SOL    HW1 2572   0.866   3.076   1.035
  241SOL    HW2 2573   0.954   3.063   1.171
  242SOL     OW 2574   0.809   2.995   0.899
  242SOL    HW1 2575   0.902   2.984   0.862
  242SOL    HW2 2576   0.749   3.000   0.821
  243SOL     OW 2577   0.603   1.819   0.566
  243SOL    HW1 2578   0.510   1.791   0.585
  243SOL    HW2 2579   0.609   1.825   0.468
  244SOL     OW 2580   1.079   2.312   1.364
  244SOL    HW1 2581   0.988   2.284   1.393
  244SOL    HW2 2582   1.143   2.269   1.425
  245SOL     OW 2583   1.185   3.153   0.770
  245SOL    HW1 2584   1.220   3.218   0.703
  245SOL    HW2 2585   1.257   3.134   0.836
  246SOL     OW 2586   0.489   2.742   0.716
  246SOL    HW1 2587   0.412   2.750   0.778
  246SOL    HW2 2588   0.453   2.747   0.624
  247SOL     OW 2589   1.264   3.382   0.616
  247SOL    HW1 2590   1.275   3.396   0.518
  247SOL    HW2 2591   1.169   3.403   0.636
  248SOL     OW 2592   0.144   2.226   1.338
  248SOL    HW1 2593   0.227   2.218   1.280
  248SOL    HW2 2594   0.168   2.289   1.409
  249SOL     OW 2595   0.956   1.808   0.737
  249SOL    HW1 2596   0.967   1.767   0.648
  249SOL    HW2 2597   0.966   1.733   0.802
  250SOL     OW 2598   1.381   2.774   0.843
  250SOL    HW1 2599   1.335   2.688   0.857
  250SOL    HW2 2600   1.396   2.783   0.745
  251SOL     OW 2601   1.419   2.255   0.960
  251SOL    HW1 2602   1.365   2.173   0.964
  251SOL    HW2 2603   1.505   2.237   1.006
  252SOL     OW 2604   1.579   2.863   0.651
  252SOL    HW1 2605   1.677   2.848   0.638
  252SOL    HW2 2606   1.565   2.960   0.658
  253SOL     OW 2607   1.674   2.832   1.489
  253SOL    HW1 2608   1.763   2.790   1.484
  253SOL    HW2 2609   1.691   2.930   1.503
  254SOL     OW 2610   1.041   2.953   1.262
  254SOL    HW1 2611   0.967   2.920   1.320
  254SOL    HW2 2612   1.125   2.909   1.296
  255SOL     OW 2613   1.056   2.783   1.047
  255SOL    HW1 2614   1.047   2.838   1.128
  255SOL    HW2 2615   1.065   2.843   0.967
  256SOL     OW 2616   0.451   2.468   1.178
  256SOL    HW1 2617   0.517   2.478   1.254
  256SOL    HW2 2618   0.417   2.373   1.188
  257SOL     OW 2619   1.235   2.082   1.202
  257SOL    HW1 2620   1.265   2.159   1.257
  257SOL    HW2 2621   1.148   2.107   1.161
  258SOL     OW 2622   0.124   3.159   1.244
  258SOL    HW1 2623   0.101   3.254   1.254
  258SOL    HW2 2624   0.215   3.146   1.282
  259SOL     OW 2625   0.634   2.183   0.811
  259SOL    HW1 2626   0.605   2.254   0.748
  259SOL    HW2 2627   0.663   2.228   0.895
  260SOL     OW 2628   1.230   3.045   1.088
  260SOL    HW1 2629   1.299   3.055   1.161
  260SOL    HW2 2630   1.182   2.961   1.108
  261SOL     OW 2631   0.390   3.080   1.266
  261SOL    HW1 2632   0.366   3.050   1.173
  261SOL    HW2 2633   0.482   3.118   1.259
  262SOL     OW 2634   0.604   2.520   0.975
  262SOL    HW1 2635   0.658   2.596   1.013
  262SOL    HW2 2636   0.536   2.497   1.046
  263SOL     OW 2637   1.309   2.504   1.014
  263SOL    HW1 2638   1.240   2.516   0.946
  263SOL    HW2 2639   1.353   2.416   0.994
  264SOL     OW 2640   0.367   1.917   1.172
  264SOL    HW1 2641   0.333   1.946   1.261
  264SOL    HW2 2642   0.351   1.817   1.172
  265SOL     OW 2643   0.112   2.899   1.204
  265SOL    HW1 2644   0.149   2.855   1.285
  265SOL    HW2 2645   0.106   2.997   1.225
  266SOL     OW 2646   0.752   2.304   1.011
  266SOL    HW1 2647   0.838   2.325   0.965
  266SOL    HW2 2648   0.700   2.389   1.013
  267SOL     OW 2649   0.325   1.805   0.619
  267SOL    HW1 2650   0.305   1.893   0.656
  267SOL    HW2 2651   0.346   1.745   0.697
  268SOL     OW 2652   0.984   2.404   0.900
  268SOL    HW1 2653   0.996   2.447   0.991
  268SOL    HW2 2654   1.041   2.324   0.900
  269SOL     OW 2655   1.049   2.930   0.820
  269SOL    HW1 2656   1.051   2.858   0.750
  269SOL    HW2 2657   1.105   3.007   0.787
  270SOL     OW 2658   0.390   2.196   0.947
  270SOL    HW1 2659   0.328   2.118   0.936
  270SOL    HW2 2660   0.462   2.185   0.879
  271SOL     OW 2661   1.128   2.096   1.546
  271SOL    HW1 2662   1.060   2.121   1.614
  271SOL    HW2 2663   1.215   2.097   1.594
  272SOL     OW 2664   1.137   1.893   1.372
  272SOL    HW1 2665   1.121   1.955   1.449
  272SOL    HW2 2666   1.174   1.950   1.300
  273SOL     OW 2667   0.172   3.367   0.878
  273SOL    HW1 2668   0.119   3.283   0.863
  273SOL    HW2 2669   0.265   3.341   0.891
  274SOL     OW 2670   0.521   3.150   0.869
  274SOL    HW1 2671   0.582   3.229   0.885
  274SOL    HW2 2672   0.565   3.094   0.800
  275SOL     OW 2673   0.978   2.448   1.160
  275SOL    HW1 2674   1.041   2.417   1.232
  275SOL    HW2 2675   0.891   2.409   1.184
  276SOL     OW 2676   1.336   2.550   1.544
  276SOL    HW1 2677   1.350   2.647   1.549
  276SOL    HW2 2678   1.340   2.524   1.448
  277SOL     OW 2679   0.701   2.123   1.204
  277SOL    HW1 2680   0.645   2.046   1.180
  277SOL    HW2 2681   0.712   2.183   1.124
  278SOL     OW 2682   0.274   2.765   1.393
  278SOL    HW1 2683   0.245   2.718   1.476
  278SOL    HW2 2684   0.252   2.703   1.316
  279SOL     OW 2685   1.672   3.309   1.077
  279SOL    HW1 2686   1.736   3.325   1.004
  279SOL    HW2 2687   1.641   3.216   1.062
  280SOL     OW 2688   1.215   3.309   1.049
  280SOL    HW1 2689   1.311   3.318   1.064
  280SOL    HW2 2690   1.192   3.216   1.077
  281SOL     OW 2691   0.139   2.863   0.941
  281SOL    HW1 2692   0.146   2.871   1.042
  281SOL    HW2 2693   0.050   2.823   0.927
  282SOL     OW 2694   1.669   1.847   0.553
  282SOL    HW1 2695   1.717   1.823   0.470
  282SOL    HW2 2696   1.621   1.766   0.583
  283SOL     OW 2697   0.815   2.879   1.364
  283SOL    HW1 2698   0.794   2.911   1.455
  283SOL    HW2 2699   0.762   2.932   1.301
  284SOL     OW 2700   1.584   3.312   1.340
  284SOL    HW1 2701   1.601   3.325   1.243
  284SOL    HW2 2702   1.516   3.376   1.373
  285SOL     OW 2703   1.738   1.878   0.914
  285SOL    HW1 2704   1.773   1.785   0.900
  285SOL    HW2 2705   1.650   1.884   0.865
  286SOL     OW 2706   0.811   2.641   1.251
  286SOL    HW1 2707   0.895   2.616   1.205
  286SOL    HW2 2708   0.829   2.724   1.305
  287SOL     OW 2709   1.004   2.697   0.680
  287SOL    HW1 2710   1.001   2.634   0.755
  287SOL    HW2 2711   1.086   2.678   0.627
  288SOL     OW 2712   1.606   2.088   1.291
  288SOL    HW1 2713   1.676   2.158   1.300
  288SOL    HW2 2714   1.652   2.013   1.241
  289SOL     OW 2715   0.702   1.908   1.426
  289SOL    HW1 2716   0.789   1.909   1.380
  289SOL    HW2 2717   0.719   1.900   1.523
  290SOL     OW 2718   1.361   2.502   1.289
  290SOL    HW1 2719   1.326   2.516   1.198
  290SOL    HW2 2720   1.460   2.502   1.281
  291SOL     OW 2721   0.630   2.484   1.362
  291SOL    HW1 2722   0.697   2.552   1.332
  291SOL    HW2 2723   0.682   2.404   1.390
  292SOL     OW 2724   1.414   2.820   1.510
  292SOL    HW1 2725   1.402   2.861   1.601
  292SOL    HW2 2726   1.514   2.818   1.497
  293SOL     OW 2727   0.406   3.298   1.470
  293SOL    HW1 2728   0.331   3.346   1.511
  293SOL    HW2 2729   0.427   3.222   1.530
  294SOL     OW 2730   1.607   2.527   1.174
  294SOL    HW1 2731   1.611   2.434   1.140
  294SOL    HW2 2732   1.591   2.586   1.096
  295SOL     OW 2733   1.151   1.976   0.503
  295SOL    HW1 2734   1.222   1.952   0.439
  295SOL    HW2 2735   1.192   2.046   0.562
  296SOL     OW 2736   0.614   2.433   0.638
  296SOL    HW1 2737   0.678   2.438   0.563
  296SOL    HW2 2738   0.533   2.389   0.600
  297SOL     OW 2739   1.693   2.023   1.541
  297SOL    HW1 2740   1.648   2.055   1.458
  297SOL    HW2 2741   1.624   2.012   1.611
  298SOL     OW 2742   1.690   2.560   1.428
  298SOL    HW1 2743   1.650   2.644   1.462
  298SOL    HW2 2744   1.657   2.547   1.335
  299SOL     OW 2745   0.678   3.366   0.904
  299SOL    HW1 2746   0.678   3.451   0.953
  299SOL    HW2 2747   0.772   3.332   0.903
  300SOL     OW 2748   1.378   3.390   1.536
  300SOL    HW1 2749   1.293   3.399   1.585
  300SOL    HW2 2750   1.421   3.307   1.569
  301SOL     OW 2751   0.035   3.140   0.818
  301SOL    HW1 2752   0.043   3.097   0.729
  301SOL    HW2 2753   0.059   3.070   0.884
  302SOL     OW 2754   0.119   2.821   0.651
  302SOL    HW1 2755   0.156   2.817   0.742
  302SOL    HW2 2756   0.189   2.797   0.585
  303SOL     OW 2757   0.631   2.987   1.531
  303SOL    HW1 2758   0.622   2.930   1.611
  303SOL    HW2 2759   0.681   3.067   1.562
  304SOL     OW 2760   1.738   1.890   1.176
  304SOL    HW1 2761   1.765   1.800   1.206
  304SOL    HW2 2762   1.739   1.891   1.076
  305SOL     OW 2763   0.488   2.090   0.591
  305SOL    HW1 2764   0.501   2.088   0.492
  305SOL    HW2 2765   0.392   2.079   0.607
  306SOL     OW 2766   0.375   2.223   1.216
  306SOL    HW1 2767   0.431   2.169   1.281
  306SOL    HW2 2768   0.393   2.188   1.124
  307SOL     OW 2769   0.826   3.159   0.659
  307SOL    HW1 2770   0.850   3.191   0.569
  307SOL    HW2 2771   0.755   3.090   0.649
  308SOL     OW 2772   1.386   1.905   1.072
  308SOL    HW1 2773   1.437   1.842   1.129
  308SOL    HW2 2774   1.337   1.965   1.135
  309SOL     OW 2775   0.979   3.458   1.090
  309SOL    HW1 2776   0.929   3.377   1.063
  309SOL    HW2 2777   1.073   3.428   1.097
  310SOL     OW 2778   0.645   3.138   1.221
  310SOL    HW1 2779   0.644   3.229   1.265
  310SOL    HW2 2780   0.737   3.135   1.179
  311SOL     OW 2781   1.260   2.149   0.670
  311SOL    HW1 2782   1.255   2.248   0.676
  311SOL    HW2 2783   1.251   2.110   0.761
  312SOL     OW 2784   1.496   1.909   0.821
  312SOL    HW1 2785   1.453   1.914   0.911
  312SOL    HW2 2786   1.488   1.996   0.776
  313SOL     OW 2787   1.981   1.962   0.944
  313SOL    HW1 2788   2.004   1.937   1.039
  313SOL    HW2 2789   1.885   1.936   0.930
  314SOL     OW 2790   1.776   2.077   0.627
  314SOL    HW1 2791   1.703   2.109   0.683
  314SOL    HW2 2792   1.745   1.989   0.589
  315SOL     OW 2793   2.288   2.851   1.088
  315SOL    HW1 2794   2.195   2.880   1.069
  315SOL    HW2 2795   2.328   2.919   1.147
  316SOL     OW 2796   2.803   2.341   0.706
  316SOL    HW1 2797   2.845   2.416   0.656
  316SOL    HW2 2798   2.761   2.383   0.787
  317SOL     OW 2799   2.062   3.006   1.018
  317SOL    HW1 2800   1.983   2.973   0.967
  317SOL    HW2 2801   2.118   3.061   0.954
  318SOL     OW 2802   2.187   2.093   1.419
  318SOL    HW1 2803   2.258   2.023   1.410
  318SOL    HW2 2804   2.100   2.045   1.433
  319SOL     OW 2805   2.803   2.931   1.542
  319SOL    HW1 2806   2.852   2.928   1.629
  319SOL    HW2 2807   2.732   2.861   1.548
  320SOL     OW 2808   1.982   3.070   0.617
  320SOL    HW1 2809   1.981   3.118   0.531
  320SOL    HW2 2810   1.928   2.987   0.608
  321SOL     OW 2811   1.994   2.714   0.838
  321SOL    HW1 2812   2.014   2.623   0.876
  321SOL    HW2 2813   1.947   2.767   0.907
  322SOL     OW 2814   2.324   3.403   1.319
  322SOL    HW1 2815   2.295   3.330   1.382
  322SOL    HW2 2816   2.419   3.422   1.344
  323SOL     OW 2817   1.901   2.311   0.564
  323SOL    HW1 2818   1.858   2.221   0.568
  323SOL    HW2 2819   1.859   2.368   0.634
  324SOL     OW 2820   2.321   2.964   0.695
  324SOL    HW1 2821   2.288   2.872   0.712
  324SOL    HW2 2822   2.280   2.991   0.608
  325SOL     OW 2823   2.506   3.450   0.551
  325SOL    HW1 2824   2.533   3.504   0.472
  325SOL    HW2 2825   2.409   3.433   0.537
  326SOL     OW 2826   2.857   3.380   1.491
  326SOL    HW1 2827   2.893   3.399   1.403
  326SOL    HW2 2828   2.865   3.282   1.505
  327SOL     OW 2829   2.935   2.031   0.879
  327SOL    HW1 2830   2.854   1.988   0.919
  327SOL    HW2 2831   3.008   2.016   0.943
  328SOL     OW 2832   2.484   2.283   1.407
  328SOL    HW1 2833   2.451   2.245   1.492
  328SOL    HW2 2834   2.446   2.223   1.334
  329SOL     OW 2835   2.677   2.112   1.155
  329SOL    HW1 2836   2.610   2.121   1.227
  329SOL    HW2 2837   2.641   2.047   1.091
  330SOL     OW 2838   1.820   2.464   0.770
  330SOL    HW1 2839   1.909   2.445   0.809
  330SOL    HW2 2840   1.810   2.561   0.768
  331SOL     OW 2841   1.863   3.389   1.493
  331SOL    HW1 2842   1.840   3.391   1.589
  331SOL    HW2 2843   1.777   3.396   1.444
  332SOL     OW 2844   2.279   1.890   0.838
  332SOL    HW1 2845   2.277   1.914   0.935
  332SOL    HW2 2846   2.255   1.972   0.787
  333SOL     OW 2847   2.078   3.375   0.863
  333SOL    HW1 2848   2.113   3.281   0.854
  333SOL    HW2 2849   2.140   3.432   0.812
  334SOL     OW 2850   2.902   3.123   1.386
  334SOL    HW1 2851   2.894   3.059   1.463
  334SOL    HW2 2852   2.808   3.140   1.357
  335SOL     OW 2853   2.184   2.905   1.620
  335SOL    HW1 2854   2.155   2.884   1.526
  335SOL    HW2 2855   2.125   2.856   1.681
  336SOL     OW 2856   1.944   1.978   1.426
  336SOL    HW1 2857   1.866   2.039   1.416
  336SOL    HW2 2858   1.926   1.928   1.509
  337SOL     OW 2859   2.021   3.373   1.176
  337SOL    HW1 2860   2.058   3.287   1.211
  337SOL    HW2 2861   2.009   3.360   1.078
  338SOL     OW 2862   2.975   2.274   1.382
  338SOL    HW1 2863   3.025   2.193   1.408
  338SOL    HW2 2864   3.037   2.327   1.329
  339SOL     OW 2865   2.504   3.008   0.910
  339SOL    HW1 2866   2.594   2.989   0.874
  339SOL    HW2 2867   2.438   2.975   0.844
  340SOL     OW 2868   2.651   1.950   0.493
  340SOL    HW1 2869   2.586   1.980   0.423
  340SOL    HW2 2870   2.737   1.937   0.445
  341SOL     OW 2871   2.734   2.378   1.349
  341SOL    HW1 2872   2.653   2.324   1.374
  341SOL    HW2 2873   2.813   2.319   1.365
  342SOL     OW 2874   1.824   2.242   1.322
  342SOL    HW1 2875   1.921   2.238   1.293
  342SOL    HW2 2876   1.821   2.306   1.397
  343SOL     OW 2877   2.295   1.912   1.105
  343SOL    HW1 2878   2.332   1.836   1.156
  343SOL    HW2 2879   2.200   1.921   1.138
  344SOL     OW 2880   2.562   2.153   0.642
  344SOL    HW1 2881   2.513   2.215   0.582
  344SOL    HW2 2882   2.568   2.067   0.592
  345SOL     OW 2883   2.702   1.766   0.727
  345SOL    HW1 2884   2.626   1.762   0.662
  345SOL    HW2 2885   2.686   1.693   0.793
  346SOL     OW 2886   2.721   2.912   1.281
  346SOL    HW1 2887   2.640   2.944   1.328
  346SOL    HW2 2888   2.795   2.924   1.346
  347SOL     OW 2889   2.781   2.797   1.052
  347SOL    HW1 2890   2.733   2.843   1.127
  347SOL    HW2 2891   2.754   2.842   0.967
  348SOL     OW 2892   2.608   1.824   1.302
  348SOL    HW1 2893   2.650   1.752   1.250
  348SOL    HW2 2894   2.670   1.844   1.377
  349SOL     OW 2895   2.644   2.709   1.518
  349SOL    HW1 2896   2.563   2.740   1.566
  349SOL    HW2 2897   2.704   2.670   1.587
  350SOL     OW 2898   1.829   3.158   1.257
  350SOL    HW1 2899   1.793   3.240   1.214
  350SOL    HW2 2900   1.928   3.164   1.259
  351SOL     OW 2901   2.297   2.193   0.812
  351SOL    HW1 2902   2.283   2.259   0.740
  351SOL    HW2 2903   2.324   2.237   0.896
  352SOL     OW 2904   2.937   3.043   1.092
  352SOL    HW1 2905   2.983   3.034   1.178
  352SOL    HW2 2906   2.876   2.965   1.084
  353SOL     OW 2907   2.100   3.126   1.246
  353SOL    HW1 2908   2.084   3.072   1.162
  353SOL    HW2 2909   2.196   3.115   1.270
  354SOL     OW 2910   2.300   2.523   1.002
  354SOL    HW1 2911   2.314   2.619   0.988
  354SOL    HW2 2912   2.265   2.513   1.095
  355SOL     OW 2913   2.049   1.912   1.192
  355SOL    HW1 2914   2.007   1.943   1.278
  355SOL    HW2 2915   2.028   1.813   1.187
  356SOL     OW 2916   1.811   2.897   1.209
  356SOL    HW1 2917   1.823   2.847   1.294
  356SOL    HW2 2918   1.801   2.993   1.233
  357SOL     OW 2919   2.453   2.301   1.001
  357SOL    HW1 2920   2.479   2.286   0.908
  357SOL    HW2 2921   2.406   2.389   1.008
  358SOL     OW 2922   2.705   2.405   0.950
  358SOL    HW1 2923   2.739   2.441   1.035
  358SOL    HW2 2924   2.657   2.321   0.975
  359SOL     OW 2925   1.765   3.076   1.498
  359SOL    HW1 2926   1.771   3.123   1.410
  359SOL    HW2 2927   1.819   3.126   1.564
  360SOL     OW 2928   2.751   2.939   0.820
  360SOL    HW1 2929   2.735   2.855   0.764
  360SOL    HW2 2930   2.805   2.997   0.762
  361SOL     OW 2931   2.051   2.463   0.917
  361SOL    HW1 2932   2.149   2.481   0.924
  361SOL    HW2 2933   2.040   2.367   0.945
  362SOL     OW 2934   2.076   2.200   0.956
  362SOL    HW1 2935   2.032   2.109   0.951
  362SOL    HW2 2936   2.147   2.193   0.886
  363SOL     OW 2937   2.785   2.072   1.527
  363SOL    HW1 2938   2.748   2.111   1.609
  363SOL    HW2 2939   2.879   2.052   1.546
  364SOL     OW 2940   2.226   3.151   0.871
  364SOL    HW1 2941   2.302   3.207   0.902
  364SOL    HW2 2942   2.264   3.082   0.808
  365SOL     OW 2943   1.782   2.227   1.050
  365SOL    HW1 2944   1.868   2.205   1.006
  365SOL    HW2 2945   1.799   2.228   1.148
  366SOL     OW 2946   2.972   2.613   1.498
  366SOL    HW1 2947   3.012   2.626   1.588
  366SOL    HW2 2948   3.040   2.570   1.442
  367SOL     OW 2949   2.400   2.138   1.206
  367SOL    HW1 2950   2.355   2.054   1.174
  367SOL    HW2 2951   2.412   2.198   1.127
  368SOL     OW 2952   2.640   3.210   1.362
  368SOL    HW1 2953   2.561   3.195   1.305
  368SOL    HW2 2954   2.637   3.305   1.391
  369SOL     OW 2955   1.917   2.722   1.397
  369SOL    HW1 2956   1.916   2.656   1.471
  369SOL    HW2 2957   1.908   2.669   1.314
  370SOL     OW 2958   2.959   2.647   1.179
  370SOL    HW1 2959   3.025   2.618   1.112
  370SOL    HW2 2960   2.900   2.714   1.133
  371SOL     OW 2961   2.910   3.304   1.039
  371SOL    HW1 2962   3.008   3.312   1.037
  371SOL    HW2 2963   2.895   3.209   1.071
  372SOL     OW 2964   1.817   2.884   0.951
  372SOL    HW1 2965   1.818   2.887   1.053
  372SOL    HW2 2966   1.734   2.837   0.927
  373SOL     OW 2967   2.393   3.257   1.541
  373SOL    HW1 2968   2.356   3.302   1.621
  373SOL    HW2 2969   2.489   3.242   1.558
  374SOL     OW 2970   2.955   2.560   0.644
  374SOL    HW1 2971   3.031   2.498   0.653
  374SOL    HW2 2972   2.981   2.629   0.578
  375SOL     OW 2973   2.044   2.027   0.692
  375SOL    HW1 2974   1.958   2.052   0.649
  375SOL    HW2 2975   2.020   1.989   0.782
  376SOL     OW 2976   2.117   2.887   1.371
  376SOL    HW1 2977   2.086   2.976   1.341
  376SOL    HW2 2978   2.037   2.826   1.377
  377SOL     OW 2979   2.719   2.725   0.675
  377SOL    HW1 2980   2.642   2.675   0.714
  377SOL    HW2 2981   2.781   2.658   0.638
  378SOL     OW 2982   2.690   1.938   0.926
  378SOL    HW1 2983   2.681   1.880   0.844
  378SOL    HW2 2984   2.682   1.877   1.003
  379SOL     OW 2985   2.376   1.905   1.415
  379SOL    HW1 2986   2.460   1.877   1.370
  379SOL    HW2 2987   2.387   1.894   1.512
  380SOL     OW 2988   2.340   2.497   1.299
  380SOL    HW1 2989   2.357   2.572   1.360
  380SOL    HW2 2990   2.374   2.415   1.344
  381SOL     OW 2991   2.109   3.305   1.469
  381SOL    HW1 2992   2.012   3.324   1.484
  381SOL    HW2 2993   2.130   3.221   1.516
  382SOL     OW 2994   2.394   3.367   0.934
  382SOL    HW1 2995   2.341   3.446   0.910
  382SOL    HW2 2996   2.458   3.351   0.861
  383SOL     OW 2997   2.546   2.601   0.833
  383SOL    HW1 2998   2.598   2.527   0.875
  383SOL    HW2 2999   2.515   2.661   0.904
  384SOL     OW 3000   1.737   3.147   0.852
  384SOL    HW1 3001   1.738   3.146   0.753
  384SOL    HW2 3002   1.779   3.062   0.881
  385SOL     OW 3003   1.847   2.833   0.641
  385SOL    HW1 3004   1.889   2.795   0.723
  385SOL    HW2 3005   1.893   2.791   0.565
  386SOL     OW 3006   2.397   2.990   1.479
  386SOL    HW1 3007   2.332   2.940   1.535
  386SOL    HW2 3008   2.393   3.083   1.511
  387SOL     OW 3009   2.068   2.236   1.226
  387SOL    HW1 3010   2.128   2.186   1.290
  387SOL    HW2 3011   2.092   2.210   1.133
  388SOL     OW 3012   2.527   3.173   0.668
  388SOL    HW1 3013   2.533   3.190   0.571
  388SOL    HW2 3014   2.460   3.101   0.680
  389SOL     OW 3015   2.681   3.441   1.095
  389SOL    HW1 3016   2.608   3.381   1.065
  389SOL    HW2 3017   2.768   3.396   1.074
  390SOL     OW 3018   0.598   3.476   0.572
  390SOL    HW1 3019   0.511   3.434   0.596
  390SOL    HW2 3020   0.583   3.532   0.491
  391SOL     OW 3021   0.354   3.447   0.680
  391SOL    HW1 3022   0.325   3.531   0.632
  391SOL    HW2 3023   0.276   3.412   0.729
  392SOL     OW 3024   2.690   3.404   0.738
  392SOL    HW1 3025   2.630   3.425   0.659
  392SOL    HW2 3026   2.637   3.339   0.790
  393SOL     OW 3027   2.593   3.479   1.342
  393SOL    HW1 3028   2.631   3.470   1.249
  393SOL    HW2 3029   2.655   3.532   1.397
  394SOL     OW 3030   2.047   3.425   0.591
  394SOL    HW1 3031   2.023   3.522   0.584
  394SOL    HW2 3032   2.018   3.393   0.679
  395SOL     OW 3033   0.088   0.338   2.701
  395SOL    HW1 3034   0.003   0.388   2.724
  395SOL    HW2 3035   0.064   0.280   2.626
  396SOL     OW 3036   0.587   1.183   3.205
  396SOL    HW1 3037   0.499   1.198   3.160
  396SOL    HW2 3038   0.614   1.273   3.238
  397SOL     OW 3039   1.672   0.606   2.930
  397SOL    HW1 3040   1.730   0.674   2.884
  397SOL    HW2 3041   1.732   0.536   2.964
  398SOL     OW 3042   1.081   0.645   2.775
  398SOL    HW1 3043   1.134   0.715   2.728
  398SOL    HW2 3044   1.055   0.687   2.862
  399SOL     OW 3045   0.766   1.043   3.064
  399SOL    HW1 3046   0.698   1.080   3.127
  399SOL    HW2 3047   0.799   1.125   3.017
  400SOL     OW 3048   0.708   0.937   2.749
  400SOL    HW1 3049   0.767   0.936   2.827
  400SOL    HW2 3050   0.642   1.010   2.763
  401SOL     OW 3051   0.371   1.308   3.092
  401SOL    HW1 3052   0.284   1.302   3.046
  401SOL    HW2 3053   0.429   1.369   3.038
  402SOL     OW 3054   1.375   1.430   3.344
  402SOL    HW1 3055   1.447   1.482   3.390
  402SOL    HW2 3056   1.351   1.357   3.408
  403SOL     OW 3057   0.506   0.368   3.469
  403SOL    HW1 3058   0.570   0.339   3.538
  403SOL    HW2 3059   0.415   0.340   3.499
  404SOL     OW 3060   1.523   0.427   2.790
  404SOL    HW1 3061   1.461   0.461   2.721
  404SOL    HW2 3062   1.573   0.505   2.827
  405SOL     OW 3063   1.151   1.220   3.625
  405SOL    HW1 3064   1.157   1.264   3.713
  405SOL    HW2 3065   1.066   1.171   3.625
  406SOL     OW 3066   0.274   1.028   2.946
  406SOL    HW1 3067   0.303   0.935   2.967
  406SOL    HW2 3068   0.236   1.066   3.028
  407SOL     OW 3069   0.620   1.692   3.381
  407SOL    HW1 3070   0.567   1.672   3.463
  407SOL    HW2 3071   0.702   1.737   3.414
  408SOL     OW 3072   0.229   0.581   2.676
  408SOL    HW1 3073   0.157   0.523   2.640
  408SOL    HW2 3074   0.184   0.661   2.716
  409SOL     OW 3075   1.613   0.874   2.688
  409SOL    HW1 3076   1.696   0.818   2.689
  409SOL    HW2 3077   1.607   0.911   2.597
  410SOL     OW 3078   0.178   0.727   3.564
  410SOL    HW1 3079   0.271   0.696   3.581
  410SOL    HW2 3080   0.156   0.780   3.645
  411SOL     OW 3081   1.314   1.182   3.423
  411SOL    HW1 3082   1.297   1.098   3.372
  411SOL    HW2 3083   1.256   1.181   3.506
  412SOL     OW 3084   0.248   0.875   3.261
  412SOL    HW1 3085   0.345   0.856   3.263
  412SOL    HW2 3086   0.213   0.830   3.181
  413SOL     OW 3087   1.114   1.641   3.543
  413SOL    HW1 3088   1.171   1.721   3.527
  413SOL    HW2 3089   1.171   1.568   3.576
  414SOL     OW 3090   1.590   1.586   2.688
  414SOL    HW1 3091   1.602   1.627   2.599
  414SOL    HW2 3092   1.549   1.498   2.674
  415SOL     OW 3093   1.255   0.329   2.992
  415SOL    HW1 3094   1.156   0.319   2.983
  415SOL    HW2 3095   1.281   0.271   3.069
  416SOL     OW 3096   0.815   0.537   3.444
  416SOL    HW1 3097   0.810   0.584   3.530
  416SOL    HW2 3098   0.726   0.539   3.403
  417SOL     OW 3099   0.960   0.828   3.567
  417SOL    HW1 3100   1.017   0.754   3.539
  417SOL    HW2 3101   0.907   0.861   3.490
  418SOL     OW 3102   0.990   0.379   3.271
  418SOL    HW1 3103   0.939   0.443   3.327
  418SOL    HW2 3104   0.952   0.384   3.180
  419SOL     OW 3105   0.138   0.780   2.831
  419SOL    HW1 3106   0.222   0.760   2.881
  419SOL    HW2 3107   0.105   0.866   2.865
  420SOL     OW 3108   0.187   1.659   3.563
  420SOL    HW1 3109   0.192   1.682   3.660
  420SOL    HW2 3110   0.140   1.730   3.516
  421SOL     OW 3111   1.314   1.100   2.645
  421SOL    HW1 3112   1.396   1.086   2.591
  421SOL    HW2 3113   1.250   1.150   2.589
  422SOL     OW 3114   0.599   0.206   2.914
  422SOL    HW1 3115   0.599   0.209   3.015
  422SOL    HW2 3116   0.547   0.287   2.886
  423SOL     OW 3117   0.395   1.675   2.915
  423SOL    HW1 3118   0.450   1.592   2.914
  423SOL    HW2 3119   0.460   1.752   2.914
  424SOL     OW 3120   1.712   0.989   2.913
  424SOL    HW1 3121   1.656   0.972   2.831
  424SOL    HW2 3122   1.647   0.993   2.990
  425SOL     OW 3123   1.414   0.695   2.788
  425SOL    HW1 3124   1.419   0.645   2.874
  425SOL    HW2 3125   1.500   0.743   2.774
  426SOL     OW 3126   0.251   0.271   3.501
  426SOL    HW1 3127   0.194   0.349   3.476
  426SOL    HW2 3128   0.226   0.243   3.592
  427SOL     OW 3129   0.311   1.679   3.240
  427SOL    HW1 3130   0.358   1.610   3.295
  427SOL    HW2 3131   0.290   1.638   3.153
  428SOL     OW 3132   0.931   1.568   2.956
  428SOL    HW1 3133   1.001   1.507   2.990
  428SOL    HW2 3134   0.887   1.521   2.878
  429SOL     OW 3135   1.315   0.527   3.441
  429SOL    HW1 3136   1.346   0.539   3.534
  429SOL    HW2 3137   1.322   0.620   3.403
  430SOL     OW 3138   0.799   1.290   2.963
  430SOL    HW1 3139   0.898   1.295   2.951
  430SOL    HW2 3140   0.762   1.295   2.872
  431SOL     OW 3141   0.900   0.487   2.948
  431SOL    HW1 3142   0.924   0.518   2.856
  431SOL    HW2 3143   0.951   0.404   2.967
  432SOL     OW 3144   0.601   0.156   2.627
  432SOL    HW1 3145   0.505   0.134   2.647
  432SOL    HW2 3146   0.602   0.184   2.532
  433SOL     OW 3147   0.489   1.098   2.786
  433SOL    HW1 3148   0.417   1.068   2.849
  433SOL    HW2 3149   0.474   1.054   2.699
  434SOL     OW 3150   1.248   1.681   2.688
  434SOL    HW1 3151   1.264   1.740   2.610
  434SOL    HW2 3152   1.163   1.716   2.730
  435SOL     OW 3153   0.164   0.511   3.407
  435SOL    HW1 3154   0.252   0.528   3.360
  435SOL    HW2 3155   0.156   0.587   3.471
  436SOL     OW 3156   0.604   0.209   3.176
  436SOL    HW1 3157   0.653   0.177   3.255
  436SOL    HW2 3158   0.512   0.234   3.207
  437SOL     OW 3159   0.951   0.069   2.812
  437SOL    HW1 3160   0.969   0.051   2.717
  437SOL    HW2 3161   0.985   3.577   2.861
  438SOL     OW 3162   1.368   1.103   2.922
  438SOL    HW1 3163   1.315   1.019   2.918
  438SOL    HW2 3164   1.408   1.114   2.831
  439SOL     OW 3165   1.390   0.569   3.033
  439SOL    HW1 3166   1.355   0.478   3.014
  439SOL    HW2 3167   1.471   0.558   3.091
  440SOL     OW 3168   1.577   1.195   2.740
  440SOL    HW1 3169   1.673   1.176   2.720
  440SOL    HW2 3170   1.555   1.281   2.700
  441SOL     OW 3171   1.675   1.162   3.542
  441SOL    HW1 3172   1.763   1.125   3.572
  441SOL    HW2 3173   1.636   1.213   3.618
  442SOL     OW 3174   1.521   1.445   3.585
  442SOL    HW1 3175   1.558   1.512   3.521
  442SOL    HW2 3176   1.549   1.474   3.676
  443SOL     OW 3177   1.078   1.126   3.149
  443SOL    HW1 3178   1.006   1.151   3.212
  443SOL    HW2 3179   1.052   1.154   3.057
  444SOL     OW 3180   1.550   1.029   3.111
  444SOL    HW1 3181   1.553   1.100   3.183
  444SOL    HW2 3182   1.471   1.052   3.054
  445SOL     OW 3183   0.884   0.149   3.405
  445SOL    HW1 3184   0.913   0.124   3.314
  445SOL    HW2 3185   0.955   0.206   3.442
  446SOL     OW 3186   0.124   1.473   3.321
  446SOL    HW1 3187   0.119   1.568   3.296
  446SOL    HW2 3188   0.221   1.457   3.344
  447SOL     OW 3189   0.606   0.504   2.911
  447SOL    HW1 3190   0.600   0.569   2.834
  447SOL    HW2 3191   0.675   0.541   2.972
  448SOL     OW 3192   1.242   1.345   3.133
  448SOL    HW1 3193   1.288   1.361   3.221
  448SOL    HW2 3194   1.192   1.258   3.145
  449SOL     OW 3195   0.385   1.418   3.339
  449SOL    HW1 3196   0.373   1.363   3.257
  449SOL    HW2 3197   0.483   1.418   3.357
  450SOL     OW 3198   0.484   0.661   3.535
  450SOL    HW1 3199   0.540   0.742   3.520
  450SOL    HW2 3200   0.521   0.608   3.609
  451SOL     OW 3201   1.485   0.720   3.604
  451SOL    HW1 3202   1.420   0.777   3.652
  451SOL    HW2 3203   1.571   0.770   3.598
  452SOL     OW 3204   0.606   0.826   3.066
  452SOL    HW1 3205   0.674   0.898   3.049
  452SOL    HW2 3206   0.593   0.823   3.163
  453SOL     OW 3207   1.303   0.819   3.044
  453SOL    HW1 3208   1.223   0.806   2.988
  453SOL    HW2 3209   1.344   0.727   3.053
  454SOL     OW 3210   0.345   0.210   3.249
  454SOL    HW1 3211   0.316   0.248   3.336
  454SOL    HW2 3212   0.289   0.131   3.233
  455SOL     OW 3213   0.124   1.206   3.266
  455SOL    HW1 3214   0.146   1.166   3.354
  455SOL    HW2 3215   0.112   1.304   3.283
  456SOL     OW 3216   0.347   0.116   2.708
  456SOL    HW1 3217   0.340   0.215   2.710
  456SOL    HW2 3218   0.310   0.087   2.795
  457SOL     OW 3219   1.007   0.731   3.017
  457SOL    HW1 3220   1.024   0.750   3.112
  457SOL    HW2 3221   0.958   0.644   3.011
  458SOL     OW 3222   0.046   1.385   3.563
  458SOL    HW1 3223   0.087   1.427   3.482
  458SOL    HW2 3224   0.103   1.411   3.640
  459SOL     OW 3225   0.425   0.854   3.697
  459SOL    HW1 3226   0.483   0.894   3.768
  459SOL    HW2 3227   0.459   0.764   3.678
  460SOL     OW 3228   1.054   1.256   2.895
  460SOL    HW1 3229   1.037   1.166   2.850
  460SOL    HW2 3230   1.113   1.303   2.832
  461SOL     OW 3231   0.353   0.769   3.001
  461SOL    HW1 3232   0.452   0.790   3.001
  461SOL    HW2 3233   0.348   0.671   3.020
  462SOL     OW 3234   0.376   0.494   3.041
  462SOL    HW1 3235   0.335   0.415   2.999
  462SOL    HW2 3236   0.461   0.506   2.988
  463SOL     OW 3237   1.150   0.236   3.473
  463SOL    HW1 3238   1.129   0.294   3.550
  463SOL    HW2 3239   1.136   0.293   3.392
  464SOL     OW 3240   0.143   1.640   2.993
  464SOL    HW1 3241   0.099   1.611   2.910
  464SOL    HW2 3242   0.235   1.670   2.965
  465SOL     OW 3243   0.540   1.445   2.939
  465SOL    HW1 3244   0.598   1.520   2.973
  465SOL    HW2 3245   0.598   1.366   2.931
  466SOL     OW 3246   0.103   0.555   3.135
  466SOL    HW1 3247   0.188   0.525   3.095
  466SOL    HW2 3248   0.102   0.522   3.229
  467SOL     OW 3249   1.582   0.545   3.222
  467SOL    HW1 3250   1.548   0.529   3.314
  467SOL    HW2 3251   1.681   0.539   3.229
  468SOL     OW 3252   0.208   1.049   3.480
  468SOL    HW1 3253   0.262   1.046   3.563
  468SOL    HW2 3254   0.266   1.020   3.405
  469SOL     OW 3255   1.283   0.992   3.239
  469SOL    HW1 3256   1.307   0.925   3.167
  469SOL    HW2 3257   1.204   1.042   3.203
  470SOL     OW 3258   1.661   1.614   3.147
  470SOL    HW1 3259   1.738   1.641   3.088
  470SOL    HW2 3260   1.649   1.517   3.129
  471SOL     OW 3261   1.216   1.612   3.124
  471SOL    HW1 3262   1.307   1.638   3.149
  471SOL    HW2 3263   1.202   1.520   3.160
  472SOL     OW 3264   0.715   1.544   3.598
  472SOL    HW1 3265   0.672   1.614   3.653
  472SOL    HW2 3266   0.810   1.569   3.587
  473SOL     OW 3267   1.688   0.194   2.656
  473SOL    HW1 3268   1.684   0.226   2.562
  473SOL    HW2 3269   1.646   0.103   2.657
  474SOL     OW 3270   1.354   1.432   2.633
  474SOL    HW1 3271   1.383   1.411   2.540
  474SOL    HW2 3272   1.300   1.516   2.626
  475SOL     OW 3273   1.228   0.868   2.735
  475SOL    HW1 3274   1.303   0.801   2.747
  475SOL    HW2 3275   1.270   0.948   2.691
  476SOL     OW 3276   0.839   1.189   3.405
  476SOL    HW1 3277   0.827   1.218   3.499
  476SOL    HW2 3278   0.752   1.210   3.363
  477SOL     OW 3279   1.598   1.607   3.399
  477SOL    HW1 3280   1.622   1.613   3.302
  477SOL    HW2 3281   1.563   1.697   3.427
  478SOL     OW 3282   1.755   0.149   2.991
  478SOL    HW1 3283   1.761   0.072   2.930
  478SOL    HW2 3284   1.663   0.187   2.970
  479SOL     OW 3285   0.331   0.350   2.823
  479SOL    HW1 3286   0.285   0.410   2.757
  479SOL    HW2 3287   0.258   0.304   2.870
  480SOL     OW 3288   0.820   0.925   3.356
  480SOL    HW1 3289   0.854   0.934   3.264
  480SOL    HW2 3290   0.824   1.017   3.395
  481SOL     OW 3291   1.567   1.217   3.299
  481SOL    HW1 3292   1.596   1.189   3.391
  481SOL    HW2 3293   1.475   1.254   3.314
  482SOL     OW 3294   1.015   1.026   2.779
  482SOL    HW1 3295   0.947   0.958   2.798
  482SOL    HW2 3296   1.091   0.975   2.738
  483SOL     OW 3297   0.998   0.241   3.007
  483SOL    HW1 3298   0.992   0.181   2.926
  483SOL    HW2 3299   1.008   0.182   3.085
  484SOL     OW 3300   1.362   0.778   3.365
  484SOL    HW1 3301   1.326   0.867   3.334
  484SOL    HW2 3302   1.453   0.795   3.399
  485SOL     OW 3303   1.633   0.821   3.256
  485SOL    HW1 3304   1.590   0.736   3.225
  485SOL    HW2 3305   1.596   0.894   3.199
  486SOL     OW 3306   0.601   0.689   2.725
  486SOL    HW1 3307   0.652   0.775   2.717
  486SOL    HW2 3308   0.535   0.689   2.652
  487SOL     OW 3309   1.680   0.882   3.511
  487SOL    HW1 3310   1.656   0.978   3.524
  487SOL    HW2 3311   1.667   0.860   3.414
  488SOL     OW 3312   0.681   1.658   3.007
  488SOL    HW1 3313   0.651   1.745   2.968
  488SOL    HW2 3314   0.777   1.646   2.985
  489SOL     OW 3315   0.673   1.275   3.607
  489SOL    HW1 3316   0.606   1.251   3.675
  489SOL    HW2 3317   0.687   1.374   3.613
  490SOL     OW 3318   1.689   0.186   3.256
  490SOL    HW1 3319   1.748   0.121   3.300
  490SOL    HW2 3320   1.716   0.192   3.161
  491SOL     OW 3321   0.393   0.548   3.294
  491SOL    HW1 3322   0.449   0.493   3.355
  491SOL    HW2 3323   0.403   0.515   3.200
  492SOL     OW 3324   0.815   1.460   2.732
  492SOL    HW1 3325   0.856   1.491   2.647
  492SOL    HW2 3326   0.720   1.443   2.710
  493SOL     OW 3327   1.358   0.203   3.203
  493SOL    HW1 3328   1.453   0.181   3.184
  493SOL    HW2 3329   1.357   0.297   3.234
  494SOL     OW 3330   0.985   1.754   3.171
  494SOL    HW1 3331   0.930   1.693   3.117
  494SOL    HW2 3332   1.078   1.717   3.166
  495SOL     OW 3333   0.658   1.436   3.286
  495SOL    HW1 3334   0.645   1.526   3.328
  495SOL    HW2 3335   0.743   1.442   3.238
  496SOL     OW 3336   1.233   0.422   2.731
  496SOL    HW1 3337   1.192   0.513   2.730
  496SOL    HW2 3338   1.266   0.405   2.823
  497SOL     OW 3339   1.509   0.214   2.940
  497SOL    HW1 3340   1.413   0.226   2.955
  497SOL    HW2 3341   1.529   0.281   2.866
  498SOL     OW 3342   1.994   0.233   3.039
  498SOL    HW1 3343   1.999   0.262   3.133
  498SOL    HW2 3344   1.897   0.215   3.020
  499SOL     OW 3345   2.807   0.670   2.754
  499SOL    HW1 3346   2.864   0.744   2.725
  499SOL    HW2 3347   2.766   0.695   2.842
  500SOL     OW 3348   2.176   0.373   3.444
  500SOL    HW1 3349   2.251   0.322   3.486
  500SOL    HW2 3350   2.095   0.343   3.494
  501SOL     OW 3351   1.954   1.390   2.684
  501SOL    HW1 3352   1.979   1.409   2.590
  501SOL    HW2 3353   1.924   1.296   2.688
  502SOL     OW 3354   2.002   1.025   2.948
  502SOL    HW1 3355   1.994   0.933   2.985
  502SOL    HW2 3356   1.941   1.085   2.999
  503SOL     OW 3357   2.312   1.684   3.437
  503SOL    HW1 3358   2.279   1.668   3.528
  503SOL    HW2 3359   2.397   1.735   3.445
  504SOL     OW 3360   2.324   1.289   2.804
  504SOL    HW1 3361   2.288   1.196   2.813
  504SOL    HW2 3362   2.302   1.319   2.710
  505SOL     OW 3363   2.960   1.164   3.451
  505SOL    HW1 3364   3.000   1.095   3.391
  505SOL    HW2 3365   3.020   1.173   3.529
  506SOL     OW 3366   1.924   0.924   3.255
  506SOL    HW1 3367   2.011   0.873   3.252
  506SOL    HW2 3368   1.850   0.858   3.245
  507SOL     OW 3369   2.874   1.649   3.536
  507SOL    HW1 3370   2.924   1.729   3.513
  507SOL    HW2 3371   2.894   1.624   3.630
  508SOL     OW 3372   2.946   0.321   2.985
  508SOL    HW1 3373   2.852   0.292   2.997
  508SOL    HW2 3374   2.987   0.323   3.075
  509SOL     OW 3375   2.493   0.570   3.474
  509SOL    HW1 3376   2.460   0.551   3.565
  509SOL    HW2 3377   2.442   0.514   3.408
  510SOL     OW 3378   2.668   0.878   3.564
  510SOL    HW1 3379   2.698   0.784   3.551
  510SOL    HW2 3380   2.593   0.894   3.502
  511SOL     OW 3381   2.678   0.417   3.246
  511SOL    HW1 3382   2.595   0.429   3.299
  511SOL    HW2 3383   2.650   0.361   3.170
  512SOL     OW 3384   1.843   0.775   2.819
  512SOL    HW1 3385   1.933   0.762   2.861
  512SOL    HW2 3386   1.807   0.861   2.857
  513SOL     OW 3387   2.268   0.206   2.942
  513SOL    HW1 3388   2.292   0.220   3.036
  513SOL    HW2 3389   2.294   0.288   2.893
  514SOL     OW 3390   2.116   1.657   2.919
  514SOL    HW1 3391   2.151   1.568   2.893
  514SOL    HW2 3392   2.186   1.723   2.899
  515SOL     OW 3393   2.213   1.203   3.670
  515SOL    HW1 3394   2.165   1.188   3.584
  515SOL    HW2 3395   2.159   1.163   3.742
  516SOL     OW 3396   1.929   0.257   3.499
  516SOL    HW1 3397   1.876   0.334   3.463
  516SOL    HW2 3398   1.921   0.262   3.597
  517SOL     OW 3399   2.009   1.623   3.264
  517SOL    HW1 3400   2.102   1.591   3.257
  517SOL    HW2 3401   1.969   1.614   3.174
  518SOL     OW 3402   2.638   1.570   2.959
  518SOL    HW1 3403   2.708   1.501   2.958
  518SOL    HW2 3404   2.572   1.539   2.889
  519SOL     OW 3405   2.563   1.420   3.213
  519SOL    HW1 3406   2.538   1.382   3.123
  519SOL    HW2 3407   2.634   1.359   3.248
  520SOL     OW 3408   2.990   0.546   3.454
  520SOL    HW1 3409   3.047   0.512   3.527
  520SOL    HW2 3410   3.009   0.642   3.446
  521SOL     OW 3411   2.501   1.295   2.996
  521SOL    HW1 3412   2.589   1.272   2.953
  521SOL    HW2 3413   2.431   1.292   2.924
  522SOL     OW 3414   2.598   0.487   2.961
  522SOL    HW1 3415   2.572   0.479   2.864
  522SOL    HW2 3416   2.644   0.402   2.983
  523SOL     OW 3417   2.197   0.111   2.660
  523SOL    HW1 3418   2.144   0.071   2.587
  523SOL    HW2 3419   2.277   0.150   2.616
  524SOL     OW 3420   2.749   0.644   3.471
  524SOL    HW1 3421   2.665   0.590   3.475
  524SOL    HW2 3422   2.828   0.582   3.463
  525SOL     OW 3423   2.894   1.459   2.854
  525SOL    HW1 3424   2.899   1.527   2.781
  525SOL    HW2 3425   2.975   1.471   2.908
  526SOL     OW 3426   2.225   1.045   2.819
  526SOL    HW1 3427   2.142   1.044   2.877
  526SOL    HW2 3428   2.189   1.027   2.728
  527SOL     OW 3429   2.937   1.667   2.693
  527SOL    HW1 3430   2.965   1.695   2.603
  527SOL    HW2 3431   2.863   1.727   2.721
  528SOL     OW 3432   1.816   0.522   3.404
  528SOL    HW1 3433   1.906   0.534   3.360
  528SOL    HW2 3434   1.806   0.597   3.467
  529SOL     OW 3435   2.545   0.430   2.705
  529SOL    HW1 3436   2.525   0.510   2.651
  529SOL    HW2 3437   2.590   0.366   2.645
  530SOL     OW 3438   2.752   1.264   3.333
  530SOL    HW1 3439   2.665   1.231   3.374
  530SOL    HW2 3440   2.825   1.212   3.379
  531SOL     OW 3441   2.594   0.169   3.369
  531SOL    HW1 3442   2.609   0.088   3.315
  531SOL    HW2 3443   2.680   0.190   3.416
  532SOL     OW 3444   2.147   0.779   3.265
  532SOL    HW1 3445   2.213   0.788   3.340
  532SOL    HW2 3446   2.101   0.691   3.284
  533SOL     OW 3447   2.935   0.358   3.268
  533SOL    HW1 3448   2.973   0.433   3.323
  533SOL    HW2 3449   2.840   0.386   3.249
  534SOL     OW 3450   2.092   1.002   2.597
  534SOL    HW1 3451   2.087   1.084   2.541
  534SOL    HW2 3452   2.108   0.928   2.534
  535SOL     OW 3453   2.303   0.514   2.913
  535SOL    HW1 3454   2.301   0.565   2.826
  535SOL    HW2 3455   2.366   0.566   2.968
  536SOL     OW 3456   2.101   0.704   3.556
  536SOL    HW1 3457   2.187   0.751   3.534
  536SOL    HW2 3458   2.116   0.648   3.635
  537SOL     OW 3459   2.315   0.808   3.062
  537SOL    HW1 3460   2.320   0.901   3.028
  537SOL    HW2 3461   2.253   0.808   3.141
  538SOL     OW 3462   3.016   0.792   3.066
  538SOL    HW1 3463   2.932   0.786   3.013
  538SOL    HW2 3464   3.060   0.703   3.060
  539SOL     OW 3465   1.854   1.256   3.307
  539SOL    HW1 3466   1.843   1.176   3.365
  539SOL    HW2 3467   1.771   1.308   3.317
  540SOL     OW 3468   2.717   0.722   2.996
  540SOL    HW1 3469   2.714   0.743   3.095
  540SOL    HW2 3470   2.672   0.632   2.988
  541SOL     OW 3471   2.744   1.241   2.906
  541SOL    HW1 3472   2.751   1.160   2.847
  541SOL    HW2 3473   2.801   1.312   2.866
  542SOL     OW 3474   2.055   0.757   2.980
  542SOL    HW1 3475   2.152   0.781   2.980
  542SOL    HW2 3476   2.049   0.667   3.020
  543SOL     OW 3477   2.073   0.491   3.034
  543SOL    HW1 3478   2.033   0.405   3.005
  543SOL    HW2 3479   2.157   0.503   2.978
  544SOL     OW 3480   2.254   0.373   3.706
  544SOL    HW1 3481   2.203   0.368   3.790
  544SOL    HW2 3482   2.285   0.466   3.699
  545SOL     OW 3483   2.829   0.215   3.477
  545SOL    HW1 3484   2.847   0.263   3.561
  545SOL    HW2 3485   2.879   0.261   3.403
  546SOL     OW 3486   1.859   1.661   2.976
  546SOL    HW1 3487   1.818   1.578   2.936
  546SOL    HW2 3488   1.956   1.659   2.949
  547SOL     OW 3489   2.677   0.764   3.248
  547SOL    HW1 3490   2.722   0.727   3.330
  547SOL    HW2 3491   2.583   0.734   3.255
  548SOL     OW 3492   3.026   0.901   3.594
  548SOL    HW1 3493   3.049   0.939   3.683
  548SOL    HW2 3494   2.927   0.896   3.591
  549SOL     OW 3495   2.399   0.442   3.260
  549SOL    HW1 3496   2.330   0.372   3.270
  549SOL    HW2 3497   2.385   0.489   3.175
  550SOL     OW 3498   2.636   1.530   3.445
  550SOL    HW1 3499   2.583   1.513   3.363
  550SOL    HW2 3500   2.626   1.626   3.469
  551SOL     OW 3501   1.927   1.042   3.490
  551SOL    HW1 3502   1.921   0.969   3.558
  551SOL    HW2 3503   1.920   0.995   3.401
  552SOL     OW 3504   3.000   0.965   3.263
  552SOL    HW1 3505   3.013   0.904   3.184
  552SOL    HW2 3506   2.922   1.021   3.240
  553SOL     OW 3507   2.912   1.580   3.182
  553SOL    HW1 3508   2.983   1.624   3.128
  553SOL    HW2 3509   2.882   1.500   3.135
  554SOL     OW 3510   1.820   1.209   3.038
  554SOL    HW1 3511   1.832   1.207   3.137
  554SOL    HW2 3512   1.765   1.132   3.010
  555SOL     OW 3513   2.515   1.195   3.424
  555SOL    HW1 3514   2.498   1.243   3.510
  555SOL    HW2 3515   2.438   1.220   3.368
  556SOL     OW 3516   2.507   0.949   3.347
  556SOL    HW1 3517   2.583   0.932   3.286
  556SOL    HW2 3518   2.518   1.042   3.384
  557SOL     OW 3519   2.097   1.240   3.439
  557SOL    HW1 3520   2.110   1.255   3.342
  557SOL    HW2 3521   2.038   1.159   3.448
  558SOL     OW 3522   2.745   1.016   2.758
  558SOL    HW1 3523   2.660   0.981   2.799
  558SOL    HW2 3524   2.756   0.971   2.671
  559SOL     OW 3525   2.688   0.229   3.010
  559SOL    HW1 3526   2.676   0.199   2.916
  559SOL    HW2 3527   2.693   0.147   3.065
  560SOL     OW 3528   2.305   1.382   2.563
  560SOL    HW1 3529   2.354   1.331   2.494
  560SOL    HW2 3530   2.264   1.461   2.518
  561SOL     OW 3531   2.364   0.196   3.500
  561SOL    HW1 3532   2.454   0.187   3.456
  561SOL    HW2 3533   2.378   0.209   3.597
  562SOL     OW 3534   2.334   0.785   3.449
  562SOL    HW1 3535   2.390   0.862   3.416
  562SOL    HW2 3536   2.398   0.709   3.457
  563SOL     OW 3537   2.307   0.696   2.716
  563SOL    HW1 3538   2.356   0.782   2.724
  563SOL    HW2 3539   2.231   0.710   2.655
  564SOL     OW 3540   2.545   0.911   2.897
  564SOL    HW1 3541   2.597   0.837   2.939
  564SOL    HW2 3542   2.514   0.971   2.968
  565SOL     OW 3543   1.731   1.432   2.914
  565SOL    HW1 3544   1.752   1.429   2.817
  565SOL    HW2 3545   1.771   1.349   2.955
  566SOL     OW 3546   1.848   1.140   2.710
  566SOL    HW1 3547   1.842   1.098   2.800
  566SOL    HW2 3548   1.918   1.089   2.661
  567SOL     OW 3549   2.391   1.364   3.587
  567SOL    HW1 3550   2.330   1.290   3.619
  567SOL    HW2 3551   2.409   1.418   3.667
  568SOL     OW 3552   2.051   0.537   3.291
  568SOL    HW1 3553   2.109   0.481   3.353
  568SOL    HW2 3554   2.072   0.511   3.196
  569SOL     OW 3555   2.513   1.487   2.741
  569SOL    HW1 3556   2.537   1.475   2.646
  569SOL    HW2 3557   2.441   1.421   2.759
  570SOL     OW 3558   2.680   1.735   3.176
  570SOL    HW1 3559   2.634   1.669   3.117
  570SOL    HW2 3560   2.772   1.699   3.188
  571SOL     OW 3561   2.299   1.457   3.285
  571SOL    HW1 3562   2.318   1.534   3.345
  571SOL    HW2 3563   2.388   1.430   3.248
  572SOL     OW 3564   2.951   0.446   2.749
  572SOL    HW1 3565   2.890   0.525   2.745
  572SOL    HW2 3566   2.945   0.407   2.841
  573SOL     OW 3567   0.258   1.948   3.052
  573SOL    HW1 3568   0.289   1.904   3.135
  573SOL    HW2 3569   0.173   1.904   3.028
  574SOL     OW 3570   0.067   2.065   2.709
  574SOL    HW1 3571   3.081   2.078   2.764
  574SOL    HW2 3572   0.048   1.995   2.642
  575SOL     OW 3573   0.584   2.882   3.210
  575SOL    HW1 3574   0.500   2.884   3.157
  575SOL    HW2 3575   0.604   2.977   3.232
  576SOL     OW 3576   1.498   3.054   2.777
  576SOL    HW1 3577   1.454   3.058   2.867
  576SOL    HW2 3578   1.427   3.071   2.707
  577SOL     OW 3579   1.672   2.246   2.899
  577SOL    HW1 3580   1.720   2.325   2.859
  577SOL    HW2 3581   1.718   2.232   2.987
  578SOL     OW 3582   1.124   2.339   2.769
  578SOL    HW1 3583   1.135   2.411   2.703
  578SOL    HW2 3584   1.070   2.375   2.843
  579SOL     OW 3585   0.788   2.759   3.083
  579SOL    HW1 3586   0.708   2.780   3.138
  579SOL    HW2 3587   0.817   2.846   3.046
  580SOL     OW 3588   0.694   2.699   2.737
  580SOL    HW1 3589   0.758   2.638   2.782
  580SOL    HW2 3590   0.606   2.653   2.732
  581SOL     OW 3591   0.372   3.014   3.088
  581SOL    HW1 3592   0.296   2.990   3.030
  581SOL    HW2 3593   0.435   3.069   3.033
  582SOL     OW 3594   0.494   2.076   3.498
  582SOL    HW1 3595   0.566   2.010   3.512
  582SOL    HW2 3596   0.408   2.026   3.499
  583SOL     OW 3597   0.300   3.218   2.570
  583SOL    HW1 3598   0.293   3.307   2.614
  583SOL    HW2 3599   0.303   3.235   2.473
  584SOL     OW 3600   0.316   2.997   2.694
  584SOL    HW1 3601   0.316   3.083   2.637
  584SOL    HW2 3602   0.227   2.957   2.679
  585SOL     OW 3603   0.270   2.687   2.937
  585SOL    HW1 3604   0.340   2.632   2.978
  585SOL    HW2 3605   0.265   2.773   2.986
  586SOL     OW 3606   1.514   1.844   3.469
  586SOL    HW1 3607   1.524   1.931   3.424
  586SOL    HW2 3608   1.507   1.861   3.566
  587SOL     OW 3609   0.209   2.294   2.650
  587SOL    HW1 3610   0.155   2.212   2.645
  587SOL    HW2 3611   0.164   2.356   2.713
  588SOL     OW 3612   0.173   2.418   3.562
  588SOL    HW1 3613   0.268   2.388   3.576
  588SOL    HW2 3614   0.169   2.508   3.600
  589SOL     OW 3615   0.621   2.964   2.772
  589SOL    HW1 3616   0.618   2.864   2.773
  589SOL    HW2 3617   0.583   2.988   2.684
  590SOL     OW 3618   0.833   3.466   2.646
  590SOL    HW1 3619   0.891   3.482   2.567
  590SOL    HW2 3620   0.760   3.407   2.612
  591SOL     OW 3621   0.227   2.594   3.263
  591SOL    HW1 3622   0.327   2.582   3.274
  591SOL    HW2 3623   0.199   2.503   3.234
  592SOL     OW 3624   1.152   3.389   3.535
  592SOL    HW1 3625   1.219   3.373   3.465
  592SOL    HW2 3626   1.150   3.305   3.587
  593SOL     OW 3627   1.391   3.015   3.024
  593SOL    HW1 3628   1.318   3.009   3.089
  593SOL    HW2 3629   1.394   2.926   2.979
  594SOL     OW 3630   1.601   3.264   2.662
  594SOL    HW1 3631   1.588   3.233   2.568
  594SOL    HW2 3632   1.562   3.191   2.718
  595SOL     OW 3633   1.259   2.029   2.960
  595SOL    HW1 3634   1.167   2.002   2.938
  595SOL    HW2 3635   1.294   1.965   3.028
  596SOL     OW 3636   0.821   2.255   3.471
  596SOL    HW1 3637   0.774   2.269   3.557
  596SOL    HW2 3638   0.757   2.209   3.408
  597SOL     OW 3639   1.316   2.143   3.626
  597SOL    HW1 3640   1.286   2.203   3.698
  597SOL    HW2 3641   1.398   2.100   3.660
  598SOL     OW 3642   0.939   2.514   3.578
  598SOL    HW1 3643   1.002   2.443   3.548
  598SOL    HW2 3644   0.883   2.539   3.499
  599SOL     OW 3645   0.989   2.090   3.255
  599SOL    HW1 3646   0.910   2.118   3.307
  599SOL    HW2 3647   0.958   2.018   3.195
  600SOL     OW 3648   0.139   2.461   2.848
  600SOL    HW1 3649   0.233   2.430   2.854
  600SOL    HW2 3650   0.143   2.559   2.855
  601SOL     OW 3651   0.571   1.889   2.928
  601SOL    HW1 3652   0.575   1.920   3.023
  601SOL    HW2 3653   0.579   1.970   2.870
  602SOL     OW 3654   0.400   3.368   2.943
  602SOL    HW1 3655   0.443   3.277   2.939
  602SOL    HW2 3656   0.459   3.426   2.995
  603SOL     OW 3657   1.714   2.688   2.901
  603SOL    HW1 3658   1.645   2.690   2.831
  603SOL    HW2 3659   1.666   2.696   2.989
  604SOL     OW 3660   1.210   3.116   3.491
  604SOL    HW1 3661   1.206   3.076   3.581
  604SOL    HW2 3662   1.137   3.075   3.436
  605SOL     OW 3663   1.426   2.374   2.781
  605SOL    HW1 3664   1.393   2.346   2.871
  605SOL    HW2 3665   1.508   2.426   2.793
  606SOL     OW 3666   0.250   1.961   3.489
  606SOL    HW1 3667   0.193   2.040   3.467
  606SOL    HW2 3668   0.235   1.937   3.583
  607SOL     OW 3669   1.331   2.243   3.388
  607SOL    HW1 3670   1.327   2.196   3.478
  607SOL    HW2 3671   1.358   2.335   3.412
  608SOL     OW 3672   0.805   3.017   2.982
  608SOL    HW1 3673   0.900   2.995   2.955
  608SOL    HW2 3674   0.748   2.983   2.908
  609SOL     OW 3675   0.580   1.774   2.630
  609SOL    HW1 3676   0.481   1.770   2.623
  609SOL    HW2 3677   0.614   1.828   2.555
  610SOL     OW 3678   1.081   2.322   3.462
  610SOL    HW1 3679   0.994   2.271   3.468
  610SOL    HW2 3680   1.152   2.261   3.430
  611SOL     OW 3681   1.194   3.152   2.858
  611SOL    HW1 3682   1.212   3.213   2.781
  611SOL    HW2 3683   1.275   3.156   2.915
  612SOL     OW 3684   1.236   3.374   2.691
  612SOL    HW1 3685   1.266   3.423   2.610
  612SOL    HW2 3686   1.169   3.429   2.736
  613SOL     OW 3687   0.157   2.202   3.408
  613SOL    HW1 3688   0.246   2.211   3.361
  613SOL    HW2 3689   0.154   2.282   3.469
  614SOL     OW 3690   0.578   1.909   3.199
  614SOL    HW1 3691   0.621   1.823   3.226
  614SOL    HW2 3692   0.490   1.907   3.243
  615SOL     OW 3693   1.018   1.766   2.794
  615SOL    HW1 3694   0.941   1.793   2.738
  615SOL    HW2 3695   0.984   1.705   2.865
  616SOL     OW 3696   1.386   2.778   2.904
  616SOL    HW1 3697   1.324   2.701   2.891
  616SOL    HW2 3698   1.404   2.810   2.812
  617SOL     OW 3699   1.392   2.256   3.018
  617SOL    HW1 3700   1.328   2.180   3.027
  617SOL    HW2 3701   1.456   2.251   3.097
  618SOL     OW 3702   1.658   2.843   3.545
  618SOL    HW1 3703   1.753   2.815   3.532
  618SOL    HW2 3704   1.666   2.930   3.594
  619SOL     OW 3705   1.070   2.943   3.339
  619SOL    HW1 3706   0.971   2.930   3.346
  619SOL    HW2 3707   1.107   2.884   3.409
  620SOL     OW 3708   1.490   3.163   3.586
  620SOL    HW1 3709   1.515   3.217   3.506
  620SOL    HW2 3710   1.573   3.147   3.638
  621SOL     OW 3711   1.560   2.728   3.112
  621SOL    HW1 3712   1.593   2.813   3.150
  621SOL    HW2 3713   1.480   2.746   3.055
  622SOL     OW 3714   0.880   1.816   3.411
  622SOL    HW1 3715   0.915   1.791   3.321
  622SOL    HW2 3716   0.961   1.823   3.468
  623SOL     OW 3717   0.963   2.773   3.603
  623SOL    HW1 3718   0.906   2.790   3.682
  623SOL    HW2 3719   0.977   2.674   3.602
  624SOL     OW 3720   0.469   2.484   3.269
  624SOL    HW1 3721   0.561   2.486   3.305
  624SOL    HW2 3722   0.436   2.389   3.281
  625SOL     OW 3723   0.118   3.120   3.313
  625SOL    HW1 3724   0.086   3.213   3.305
  625SOL    HW2 3725   0.214   3.125   3.342
  626SOL     OW 3726   0.432   2.721   2.621
  626SOL    HW1 3727   0.429   2.801   2.563
  626SOL    HW2 3728   0.434   2.642   2.561
  627SOL     OW 3729   0.600   2.186   2.908
  627SOL    HW1 3730   0.603   2.237   2.823
  627SOL    HW2 3731   0.643   2.243   2.978
  628SOL     OW 3732   0.390   3.101   3.339
  628SOL    HW1 3733   0.371   3.065   3.247
  628SOL    HW2 3734   0.484   3.133   3.334
  629SOL     OW 3735   0.440   2.389   3.569
  629SOL    HW1 3736   0.510   2.458   3.559
  629SOL    HW2 3737   0.484   2.303   3.586
  630SOL     OW 3738   1.473   2.411   3.565
  630SOL    HW1 3739   1.435   2.427   3.654
  630SOL    HW2 3740   1.567   2.447   3.570
  631SOL     OW 3741   0.500   1.753   3.631
  631SOL    HW1 3742   0.428   1.686   3.645
  631SOL    HW2 3743   0.509   1.805   3.715
  632SOL     OW 3744   1.309   2.511   3.072
  632SOL    HW1 3745   1.227   2.506   3.017
  632SOL    HW2 3746   1.347   2.419   3.071
  633SOL     OW 3747   0.748   2.321   3.085
  633SOL    HW1 3748   0.808   2.296   3.011
  633SOL    HW2 3749   0.722   2.415   3.070
  634SOL     OW 3750   0.312   1.768   2.683
  634SOL    HW1 3751   0.318   1.866   2.701
  634SOL    HW2 3752   0.344   1.723   2.765
  635SOL     OW 3753   1.028   2.400   3.008
  635SOL    HW1 3754   1.018   2.430   3.105
  635SOL    HW2 3755   1.024   2.301   3.010
  636SOL     OW 3756   1.042   2.930   2.897
  636SOL    HW1 3757   1.057   2.854   2.836
  636SOL    HW2 3758   1.102   3.005   2.870
  637SOL     OW 3759   0.372   2.191   3.041
  637SOL    HW1 3760   0.333   2.100   3.028
  637SOL    HW2 3761   0.449   2.196   2.976
  638SOL     OW 3762   1.158   1.920   3.458
  638SOL    HW1 3763   1.154   1.966   3.546
  638SOL    HW2 3764   1.123   1.982   3.390
  639SOL     OW 3765   0.134   3.379   2.982
  639SOL    HW1 3766   0.095   3.292   2.953
  639SOL    HW2 3767   0.233   3.370   2.975
  640SOL     OW 3768   0.557   3.155   2.949
  640SOL    HW1 3769   0.650   3.160   2.981
  640SOL    HW2 3770   0.559   3.084   2.878
  641SOL     OW 3771   0.981   2.456   3.255
  641SOL    HW1 3772   1.036   2.419   3.330
  641SOL    HW2 3773   0.891   2.418   3.267
  642SOL     OW 3774   0.104   2.263   3.139
  642SOL    HW1 3775   0.180   2.227   3.087
  642SOL    HW2 3776   0.100   2.213   3.224
  643SOL     OW 3777   1.335   2.654   3.547
  643SOL    HW1 3778   1.329   2.642   3.645
  643SOL    HW2 3779   1.364   2.566   3.511
  644SOL     OW 3780   0.780   2.271   2.536
  644SOL    HW1 3781   0.819   2.196   2.485
  644SOL    HW2 3782   0.732   2.328   2.471
  645SOL     OW 3783   1.562   2.257   3.216
  645SOL    HW1 3784   1.543   2.222   3.306
  645SOL    HW2 3785   1.656   2.233   3.193
  646SOL     OW 3786   0.696   2.136   3.276
  646SOL    HW1 3787   0.655   2.051   3.241
  646SOL    HW2 3788   0.706   2.199   3.199
  647SOL     OW 3789   0.902   3.205   3.462
  647SOL    HW1 3790   0.930   3.188   3.370
  647SOL    HW2 3791   0.941   3.292   3.489
  648SOL     OW 3792   1.300   2.724   3.254
  648SOL    HW1 3793   1.327   2.644   3.199
  648SOL    HW2 3794   1.202   2.725   3.250
  649SOL     OW 3795   1.671   3.301   3.151
  649SOL    HW1 3796   1.739   3.345   3.090
  649SOL    HW2 3797   1.661   3.209   3.116
  650SOL     OW 3798   1.206   3.302   3.158
  650SOL    HW1 3799   1.289   3.316   3.103
  650SOL    HW2 3800   1.199   3.205   3.176
  651SOL     OW 3801   0.129   2.895   3.047
  651SOL    HW1 3802   0.130   2.914   3.144
  651SOL    HW2 3803   0.055   2.835   3.023
  652SOL     OW 3804   1.334   3.141   2.589
  652SOL    HW1 3805   1.382   3.139   2.502
  652SOL    HW2 3806   1.283   3.225   2.592
  653SOL     OW 3807   1.263   2.595   2.743
  653SOL    HW1 3808   1.308   2.505   2.743
  653SOL    HW2 3809   1.248   2.619   2.648
  654SOL     OW 3810   0.813   2.902   3.392
  654SOL    HW1 3811   0.813   2.924   3.489
  654SOL    HW2 3812   0.720   2.879   3.368
  655SOL     OW 3813   1.553   3.318   3.385
  655SOL    HW1 3814   1.599   3.315   3.297
  655SOL    HW2 3815   1.567   3.406   3.426
  656SOL     OW 3816   1.726   1.890   2.987
  656SOL    HW1 3817   1.775   1.805   2.963
  656SOL    HW2 3818   1.630   1.868   2.982
  657SOL     OW 3819   0.315   2.016   2.794
  657SOL    HW1 3820   0.228   2.051   2.759
  657SOL    HW2 3821   0.300   1.988   2.888
  658SOL     OW 3822   0.799   2.628   3.369
  658SOL    HW1 3823   0.855   2.616   3.288
  658SOL    HW2 3824   0.818   2.720   3.402
  659SOL     OW 3825   0.417   2.885   3.507
  659SOL    HW1 3826   0.407   2.966   3.450
  659SOL    HW2 3827   0.344   2.824   3.487
  660SOL     OW 3828   1.428   3.339   3.008
  660SOL    HW1 3829   1.454   3.378   2.921
  660SOL    HW2 3830   1.510   3.332   3.063
  661SOL     OW 3831   0.457   3.331   3.540
  661SOL    HW1 3832   0.363   3.358   3.552
  661SOL    HW2 3833   0.458   3.234   3.565
  662SOL     OW 3834   1.623   2.518   3.266
  662SOL    HW1 3835   1.583   2.431   3.239
  662SOL    HW2 3836   1.591   2.588   3.201
  663SOL     OW 3837   0.589   2.413   2.736
  663SOL    HW1 3838   0.669   2.454   2.694
  663SOL    HW2 3839   0.548   2.356   2.667
  664SOL     OW 3840   1.686   2.566   3.517
  664SOL    HW1 3841   1.672   2.662   3.536
  664SOL    HW2 3842   1.663   2.551   3.420
  665SOL     OW 3843   0.850   2.570   2.907
  665SOL    HW1 3844   0.928   2.518   2.940
  665SOL    HW2 3845   0.832   2.644   2.974
  666SOL     OW 3846   0.049   3.128   2.908
  666SOL    HW1 3847   0.038   3.112   2.811
  666SOL    HW2 3848   0.089   3.045   2.946
  667SOL     OW 3849   0.130   2.804   2.730
  667SOL    HW1 3850   0.179   2.769   2.809
  667SOL    HW2 3851   0.189   2.785   2.653
  668SOL     OW 3852   0.666   3.018   3.598
  668SOL    HW1 3853   0.601   2.949   3.627
  668SOL    HW2 3854   0.696   3.066   3.679
  669SOL     OW 3855   1.728   1.904   3.261
  669SOL    HW1 3856   1.730   1.811   3.291
  669SOL    HW2 3857   1.730   1.905   3.162
  670SOL     OW 3858   0.518   2.095   2.647
  670SOL    HW1 3859   0.481   2.065   2.560
  670SOL    HW2 3860   0.445   2.079   2.712
  671SOL     OW 3861   0.392   2.231   3.300
  671SOL    HW1 3862   0.449   2.170   3.357
  671SOL    HW2 3863   0.401   2.204   3.203
  672SOL     OW 3864   0.788   3.192   2.736
  672SOL    HW1 3865   0.857   3.180   2.667
  672SOL    HW2 3866   0.745   3.103   2.748
  673SOL     OW 3867   1.387   1.906   3.162
  673SOL    HW1 3868   1.430   1.838   3.218
  673SOL    HW2 3869   1.336   1.965   3.223
  674SOL     OW 3870   0.982   3.444   3.163
  674SOL    HW1 3871   0.931   3.373   3.119
  674SOL    HW2 3872   1.077   3.409   3.165
  675SOL     OW 3873   0.654   3.161   3.286
  675SOL    HW1 3874   0.675   3.184   3.380
  675SOL    HW2 3875   0.734   3.115   3.251
  676SOL     OW 3876   1.969   2.003   3.031
  676SOL    HW1 3877   2.004   1.960   3.116
  676SOL    HW2 3878   1.879   1.962   3.016
  677SOL     OW 3879   2.789   2.344   2.774
  677SOL    HW1 3880   2.837   2.429   2.754
  677SOL    HW2 3881   2.734   2.357   2.854
  678SOL     OW 3882   2.466   2.776   3.067
  678SOL    HW1 3883   2.380   2.804   3.106
  678SOL    HW2 3884   2.492   2.841   2.998
  679SOL     OW 3885   2.045   3.029   3.090
  679SOL    HW1 3886   2.009   2.962   3.027
  679SOL    HW2 3887   2.121   3.074   3.043
  680SOL     OW 3888   2.187   2.074   3.482
  680SOL    HW1 3889   2.259   2.032   3.534
  680SOL    HW2 3890   2.101   2.034   3.513
  681SOL     OW 3891   1.990   3.071   2.679
  681SOL    HW1 3892   1.964   3.117   2.596
  681SOL    HW2 3893   1.934   2.989   2.688
  682SOL     OW 3894   1.995   2.723   2.971
  682SOL    HW1 3895   2.004   2.625   2.981
  682SOL    HW2 3896   1.911   2.748   3.015
  683SOL     OW 3897   2.287   3.385   3.446
  683SOL    HW1 3898   2.281   3.319   3.520
  683SOL    HW2 3899   2.377   3.427   3.453
  684SOL     OW 3900   2.341   2.967   2.811
  684SOL    HW1 3901   2.298   2.876   2.810
  684SOL    HW2 3902   2.321   3.009   2.722
  685SOL     OW 3903   2.958   2.797   3.397
  685SOL    HW1 3904   2.935   2.712   3.445
  685SOL    HW2 3905   2.988   2.858   3.470
  686SOL     OW 3906   1.926   2.615   3.255
  686SOL    HW1 3907   2.011   2.561   3.256
  686SOL    HW2 3908   1.850   2.552   3.254
  687SOL     OW 3909   2.836   3.360   3.542
  687SOL    HW1 3910   2.911   3.422   3.531
  687SOL    HW2 3911   2.862   3.292   3.608
  688SOL     OW 3912   2.961   2.004   2.969
  688SOL    HW1 3913   2.862   1.999   2.971
  688SOL    HW2 3914   2.989   2.026   3.061
  689SOL     OW 3915   2.484   2.267   3.481
  689SOL    HW1 3916   2.455   2.237   3.570
  689SOL    HW2 3917   2.434   2.215   3.411
  690SOL     OW 3918   2.675   2.587   3.540
  690SOL    HW1 3919   2.712   2.495   3.547
  690SOL    HW2 3920   2.584   2.575   3.506
  691SOL     OW 3921   2.672   2.087   3.256
  691SOL    HW1 3922   2.591   2.116   3.304
  691SOL    HW2 3923   2.645   2.049   3.169
  692SOL     OW 3924   1.828   2.453   2.834
  692SOL    HW1 3925   1.922   2.444   2.867
  692SOL    HW2 3926   1.799   2.546   2.856
  693SOL     OW 3927   2.112   3.395   2.896
  693SOL    HW1 3928   2.119   3.295   2.903
  693SOL    HW2 3929   2.204   3.424   2.877
  694SOL     OW 3930   2.907   3.083   3.459
  694SOL    HW1 3931   2.888   3.074   3.556
  694SOL    HW2 3932   2.846   3.154   3.427
  695SOL     OW 3933   1.937   1.972   3.508
  695SOL    HW1 3934   1.866   2.034   3.477
  695SOL    HW2 3935   1.911   1.941   3.598
  696SOL     OW 3936   2.010   3.363   3.263
  696SOL    HW1 3937   2.052   3.274   3.286
  696SOL    HW2 3938   1.980   3.354   3.169
  697SOL     OW 3939   2.568   3.113   3.170
  697SOL    HW1 3940   2.587   3.081   3.078
  697SOL    HW2 3941   2.613   3.050   3.230
  698SOL     OW 3942   2.990   2.252   3.455
  698SOL    HW1 3943   3.052   2.201   3.513
  698SOL    HW2 3944   3.040   2.328   3.420
  699SOL     OW 3945   2.586   2.195   2.959
  699SOL    HW1 3946   2.571   2.185   2.861
  699SOL    HW2 3947   2.640   2.115   2.984
  700SOL     OW 3948   2.746   2.343   3.449
  700SOL    HW1 3949   2.669   2.285   3.474
  700SOL    HW2 3950   2.828   2.287   3.459
  701SOL     OW 3951   2.873   3.160   2.856
  701SOL    HW1 3952   2.892   3.215   2.776
  701SOL    HW2 3953   2.955   3.160   2.911
  702SOL     OW 3954   2.208   2.741   2.811
  702SOL    HW1 3955   2.129   2.739   2.873
  702SOL    HW2 3956   2.169   2.730   2.719
  703SOL     OW 3957   1.829   2.227   3.399
  703SOL    HW1 3958   1.926   2.228   3.375
  703SOL    HW2 3959   1.815   2.296   3.469
  704SOL     OW 3960   2.292   1.920   3.171
  704SOL    HW1 3961   2.339   1.837   3.196
  704SOL    HW2 3962   2.199   1.912   3.208
  705SOL     OW 3963   2.525   2.132   2.699
  705SOL    HW1 3964   2.538   2.210   2.640
  705SOL    HW2 3965   2.578   2.059   2.660
  706SOL     OW 3966   2.693   1.774   2.796
  706SOL    HW1 3967   2.634   1.759   2.719
  706SOL    HW2 3968   2.677   1.698   2.859
  707SOL     OW 3969   2.582   1.810   3.419
  707SOL    HW1 3970   2.618   1.792   3.327
  707SOL    HW2 3971   2.646   1.871   3.462
  708SOL     OW 3972   2.138   2.460   3.262
  708SOL    HW1 3973   2.205   2.475   3.337
  708SOL    HW2 3974   2.109   2.365   3.277
  709SOL     OW 3975   2.939   2.059   3.256
  709SOL    HW1 3976   2.968   2.125   3.324
  709SOL    HW2 3977   2.839   2.066   3.254
  710SOL     OW 3978   1.820   3.154   3.353
  710SOL    HW1 3979   1.797   3.227   3.291
  710SOL    HW2 3980   1.920   3.142   3.351
  711SOL     OW 3981   2.075   2.722   2.581
  711SOL    HW1 3982   2.070   2.801   2.520
  711SOL    HW2 3983   2.094   2.644   2.523
  712SOL     OW 3984   2.884   3.028   3.194
  712SOL    HW1 3985   2.969   3.048   3.241
  712SOL    HW2 3986   2.901   2.974   3.114
  713SOL     OW 3987   2.080   3.113   3.338
  713SOL    HW1 3988   2.061   3.059   3.254
  713SOL    HW2 3989   2.180   3.107   3.347
  714SOL     OW 3990   2.303   2.509   3.053
  714SOL    HW1 3991   2.349   2.596   3.046
  714SOL    HW2 3992   2.256   2.505   3.141
  715SOL     OW 3993   3.027   2.519   3.104
  715SOL    HW1 3994   2.956   2.521   3.034
  715SOL    HW2 3995   3.069   2.429   3.094
  716SOL     OW 3996   2.042   1.894   3.264
  716SOL    HW1 3997   2.007   1.934   3.348
  716SOL    HW2 3998   2.021   1.796   3.271
  717SOL     OW 3999   1.777   2.902   3.266
  717SOL    HW1 4000   1.829   2.846   3.330
  717SOL    HW2 4001   1.792   2.996   3.296
  718SOL     OW 4002   2.054   1.779   2.672
  718SOL    HW1 4003   2.041   1.872   2.699
  718SOL    HW2 4004   2.041   1.719   2.749
  719SOL     OW 4005   2.724   3.078   3.643
  719SOL    HW1 4006   2.677   3.151   3.594
  719SOL    HW2 4007   2.665   3.053   3.720
  720SOL     OW 4008   1.761   3.095   3.607
  720SOL    HW1 4009   1.780   3.116   3.511
  720SOL    HW2 4010   1.846   3.100   3.656
  721SOL     OW 4011   2.746   2.928   2.936
  721SOL    HW1 4012   2.735   2.858   2.864
  721SOL    HW2 4013   2.783   3.009   2.891
  722SOL     OW 4014   2.061   2.435   2.969
  722SOL    HW1 4015   2.156   2.468   2.974
  722SOL    HW2 4016   2.040   2.399   3.059
  723SOL     OW 4017   2.780   2.100   3.615
  723SOL    HW1 4018   2.730   2.117   3.698
  723SOL    HW2 4019   2.871   2.073   3.642
  724SOL     OW 4020   1.859   3.369   2.981
  724SOL    HW1 4021   1.819   3.288   2.938
  724SOL    HW2 4022   1.948   3.382   2.937
  725SOL     OW 4023   2.242   3.160   2.958
  725SOL    HW1 4024   2.326   3.211   2.965
  725SOL    HW2 4025   2.265   3.081   2.900
  726SOL     OW 4026   2.668   2.475   3.231
  726SOL    HW1 4027   2.717   2.433   3.309
  726SOL    HW2 4028   2.595   2.412   3.211
  727SOL     OW 4029   1.815   2.214   3.128
  727SOL    HW1 4030   1.886   2.152   3.096
  727SOL    HW2 4031   1.824   2.215   3.228
  728SOL     OW 4032   3.038   2.624   3.583
  728SOL    HW1 4033   3.046   2.649   3.678
  728SOL    HW2 4034   3.042   2.525   3.579
  729SOL     OW 4035   2.391   2.152   3.256
  729SOL    HW1 4036   2.354   2.061   3.232
  729SOL    HW2 4037   2.420   2.194   3.171
  730SOL     OW 4038   2.619   3.213   3.431
  730SOL    HW1 4039   2.584   3.212   3.338
  730SOL    HW2 4040   2.627   3.309   3.456
  731SOL     OW 4041   1.912   2.760   3.477
  731SOL    HW1 4042   1.945   2.706   3.552
  731SOL    HW2 4043   1.927   2.706   3.394
  732SOL     OW 4044   2.952   2.563   2.730
  732SOL    HW1 4045   3.022   2.493   2.734
  732SOL    HW2 4046   2.987   2.634   2.671
  733SOL     OW 4047   2.534   2.905   3.412
  733SOL    HW1 4048   2.505   2.934   3.503
  733SOL    HW2 4049   2.449   2.911   3.361
  734SOL     OW 4050   2.030   2.048   2.776
  734SOL    HW1 4051   1.948   2.061   2.722
  734SOL    HW2 4052   2.000   2.023   2.869
  735SOL     OW 4053   2.489   2.648   3.345
  735SOL    HW1 4054   2.563   2.608   3.290
  735SOL    HW2 4055   2.522   2.733   3.385
  736SOL     OW 4056   2.716   2.729   2.756
  736SOL    HW1 4057   2.648   2.669   2.798
  736SOL    HW2 4058   2.785   2.670   2.717
  737SOL     OW 4059   2.688   1.945   3.007
  737SOL    HW1 4060   2.691   1.897   2.919
  737SOL    HW2 4061   2.686   1.873   3.077
  738SOL     OW 4062   2.318   3.110   2.590
  738SOL    HW1 4063   2.349   3.044   2.523
  738SOL    HW2 4064   2.247   3.164   2.549
  739SOL     OW 4065   2.320   2.477   3.444
  739SOL    HW1 4066   2.379   2.552   3.414
  739SOL    HW2 4067   2.381   2.400   3.466
  740SOL     OW 4068   2.286   2.377   2.720
  740SOL    HW1 4069   2.354   2.445   2.740
  740SOL    HW2 4070   2.233   2.411   2.644
  741SOL     OW 4071   2.564   2.573   2.912
  741SOL    HW1 4072   2.582   2.495   2.969
  741SOL    HW2 4073   2.531   2.645   2.972
  742SOL     OW 4074   1.743   3.133   2.918
  742SOL    HW1 4075   1.696   3.124   2.831
  742SOL    HW2 4076   1.775   3.043   2.941
  743SOL     OW 4077   1.853   2.844   2.718
  743SOL    HW1 4078   1.821   2.788   2.794
  743SOL    HW2 4079   1.915   2.787   2.664
  744SOL     OW 4080   2.360   3.003   3.597
  744SOL    HW1 4081   2.324   2.932   3.655
  744SOL    HW2 4082   2.383   3.078   3.656
  745SOL     OW 4083   2.076   2.206   3.284
  745SOL    HW1 4084   2.122   2.165   3.364
  745SOL    HW2 4085   2.121   2.166   3.206
  746SOL     OW 4086   2.525   3.185   2.772
  746SOL    HW1 4087   2.548   3.186   2.676
  746SOL    HW2 4088   2.463   3.108   2.782
  747SOL     OW 4089   2.684   3.436   3.177
  747SOL    HW1 4090   2.628   3.378   3.121
  747SOL    HW2 4091   2.777   3.419   3.150
  748SOL     OW 4092   2.339   3.142   3.300
  748SOL    HW1 4093   2.337   3.234   3.338
  748SOL    HW2 4094   2.421   3.133   3.244
  749SOL     OW 4095   0.555   3.466   2.619
  749SOL    HW1 4096   0.460   3.437   2.613
  749SOL    HW2 4097   0.575   3.513   2.534
  750SOL     OW 4098   0.870   3.468   3.414
  750SOL    HW1 4099   0.914   3.459   3.324
  750SOL    HW2 4100   0.927   3.532   3.464
  751SOL     OW 4101   0.300   3.441   2.695
  751SOL    HW1 4102   0.289   3.540   2.681
  751SOL    HW2 4103   0.296   3.422   2.791
  752SOL     OW 4104   1.644   3.521   2.642
  752SOL    HW1 4105   1.691   3.532   2.555
  752SOL    HW2 4106   1.627   3.423   2.653
  753SOL     OW 4107   2.670   3.453   2.834
  753SOL    HW1 4108   2.646   3.462   2.740
  753SOL    HW2 4109   2.673   3.356   2.854
  754SOL     OW 4110   2.581   3.479   3.419
  754SOL    HW1 4111   2.625   3.468   3.329
  754SOL    HW2 4112   2.643   3.531   3.476
   3.09600   3.58633   4.15800
