Generated by atomipy
5967
    1MIN    Sit    1   0.405   0.064   1.782
   98SOL     Ow    2   1.229   1.005   0.647
   98SOL     Hw    3   1.149   0.981   0.598
   98SOL     Hw    4   1.219   1.103   0.654
   99SOL     Ow    5   1.094   0.949   1.057
   99SOL     Hw    6   1.045   0.880   1.008
   99SOL     Hw    7   1.112   0.900   1.140
  100SOL     Ow    8   0.314   0.857   1.152
  100SOL     Hw    9   0.407   0.875   1.128
  100SOL     Hw   10   0.323   0.796   1.228
  101SOL     Ow   11   1.493   1.245   0.876
  101SOL     Hw   12   1.453   1.175   0.931
  101SOL     Hw   13   1.514   1.313   0.943
  102SOL     Ow   14   0.468   1.369   1.003
  102SOL     Hw   15   0.442   1.277   0.980
  102SOL     Hw   16   0.565   1.362   1.005
  103SOL     Ow   17   0.070   0.725   0.610
  103SOL     Hw   18   0.056   0.822   0.607
  103SOL     Hw   19   0.104   0.714   0.700
  104SOL     Ow   20   0.216   0.945   0.853
  104SOL     Hw   21   0.166   0.954   0.771
  104SOL     Hw   22   0.233   0.849   0.861
  105SOL     Ow   23   1.215   1.739   0.912
  105SOL     Hw   24   1.236   1.665   0.852
  105SOL     Hw   25   1.215   1.697   1.000
  106SOL     Ow   26   0.946   1.193   1.046
  106SOL     Hw   27   0.990   1.110   1.020
  106SOL     Hw   28   1.013   1.228   1.108
  107SOL     Ow   29   1.860   0.386   1.231
  107SOL     Hw   30   1.910   0.387   1.147
  107SOL     Hw   31   1.815   0.473   1.228
  108SOL     Ow   32   1.241   0.635   1.069
  108SOL     Hw   33   1.225   0.636   0.972
  108SOL     Hw   34   1.253   0.539   1.083
  109SOL     Ow   35   0.600   0.418   0.817
  109SOL     Hw   36   0.546   0.372   0.750
  109SOL     Hw   37   0.608   0.507   0.775
  110SOL     Ow   38   1.377   0.446   0.633
  110SOL     Hw   39   1.456   0.482   0.589
  110SOL     Hw   40   1.415   0.412   0.717
  111SOL     Ow   41   0.238   0.670   0.863
  111SOL     Hw   42   0.274   0.630   0.781
  111SOL     Hw   43   0.293   0.626   0.930
  112SOL     Ow   44   0.724   0.828   0.846
  112SOL     Hw   45   0.691   0.753   0.793
  112SOL     Hw   46   0.811   0.796   0.876
  113SOL     Ow   47   0.417   0.335   1.254
  113SOL     Hw   48   0.390   0.405   1.192
  113SOL     Hw   49   0.368   0.359   1.335
  114SOL     Ow   50   1.195   1.271   0.585
  114SOL     Hw   51   1.162   1.265   0.493
  114SOL     Hw   52   1.141   1.348   0.616
  115SOL     Ow   53   0.728   1.095   1.188
  115SOL     Hw   54   0.804   1.128   1.136
  115SOL     Hw   55   0.677   1.176   1.199
  116SOL     Ow   56   1.458   0.378   0.881
  116SOL     Hw   57   1.518   0.442   0.927
  116SOL     Hw   58   1.386   0.370   0.947
  117SOL     Ow   59   0.421   0.503   1.020
  117SOL     Hw   60   0.490   0.466   0.961
  117SOL     Hw   61   0.478   0.555   1.081
  118SOL     Ow   62   0.195   1.278   0.426
  118SOL     Hw   63   0.167   1.336   0.352
  118SOL     Hw   64   0.198   1.342   0.499
  119SOL     Ow   65   1.533   1.444   1.069
  119SOL     Hw   66   1.548   1.539   1.052
  119SOL     Hw   67   1.435   1.442   1.083
  120SOL     Ow   68   1.622   0.195   1.211
  120SOL     Hw   69   1.541   0.245   1.228
  120SOL     Hw   70   1.689   0.264   1.211
  121SOL     Ow   71   0.785   0.099   0.901
  121SOL     Hw   72   0.774   0.011   0.941
  121SOL     Hw   73   0.713   0.145   0.949
  122SOL     Ow   74   1.321   1.601   0.681
  122SOL     Hw   75   1.370   1.518   0.666
  122SOL     Hw   76   1.396   1.665   0.684
  123SOL     Ow   77   1.453   1.364   0.629
  123SOL     Hw   78   1.369   1.317   0.610
  123SOL     Hw   79   1.478   1.320   0.713
  124SOL     Ow   80   1.064   0.926   0.435
  124SOL     Hw   81   1.119   0.933   0.356
  124SOL     Hw   82   0.988   0.985   0.412
  125SOL     Ow   83   1.106   0.717   0.144
  125SOL     Hw   84   1.090   0.781   0.072
  125SOL     Hw   85   1.177   0.764   0.193
  126SOL     Ow   86   1.764   0.868   1.209
  126SOL     Hw   87   1.831   0.918   1.157
  126SOL     Hw   88   1.724   0.939   1.259
  127SOL     Ow   89   1.436   0.949   0.483
  127SOL     Hw   90   1.366   0.974   0.548
  127SOL     Hw   91   1.499   0.904   0.543
  128SOL     Ow   92   1.418   0.729   1.436
  128SOL     Hw   93   1.337   0.771   1.402
  128SOL     Hw   94   1.430   0.770   1.523
  129SOL     Ow   95   0.577   1.015   0.704
  129SOL     Hw   96   0.556   0.970   0.620
  129SOL     Hw   97   0.633   0.948   0.750
  130SOL     Ow   98   0.746   1.375   0.963
  130SOL     Hw   99   0.740   1.377   0.865
  130SOL     Hw  100   0.822   1.315   0.978
  131SOL     Ow  101   0.582   0.881   1.081
  131SOL     Hw  102   0.626   0.876   0.993
  131SOL     Hw  103   0.622   0.963   1.116
  132SOL     Ow  104   1.271   1.429   1.127
  132SOL     Hw  105   1.219   1.360   1.173
  132SOL     Hw  106   1.237   1.513   1.166
  133SOL     Ow  107   1.296   0.874   0.262
  133SOL     Hw  108   1.340   0.923   0.189
  133SOL     Hw  109   1.343   0.908   0.341
  134SOL     Ow  110   1.069   1.510   0.619
  134SOL     Hw  111   1.033   1.569   0.552
  134SOL     Hw  112   1.147   1.560   0.651
  135SOL     Ow  113   1.710   0.025   0.230
  135SOL     Hw  114   1.736   0.105   0.180
  135SOL     Hw  115   1.625   0.054   0.266
  136SOL     Ow  116   0.506   0.919   0.443
  136SOL     Hw  117   0.456   0.839   0.427
  136SOL     Hw  118   0.448   0.986   0.401
  137SOL     Ow  119   1.822   1.497   0.094
  137SOL     Hw  120   1.835   1.593   0.112
  137SOL     Hw  121   1.901   1.460   0.137
  138SOL     Ow  122   0.269   1.157   1.384
  138SOL     Hw  123   0.223   1.070   1.395
  138SOL     Hw  124   0.194   1.207   1.349
  139SOL     Ow  125   0.116   1.473   1.010
  139SOL     Hw  126   0.111   1.378   1.019
  139SOL     Hw  127   0.171   1.496   1.087
  140SOL     Ow  128   1.052   1.797   0.461
  140SOL     Hw  129   1.032   1.816   0.368
  140SOL     Hw  130   1.023   1.879   0.505
  141SOL     Ow  131   0.393   1.693   0.669
  141SOL     Hw  132   0.325   1.628   0.638
  141SOL     Hw  133   0.410   1.661   0.761
  142SOL     Ow  134   1.325   1.808   0.154
  142SOL     Hw  135   1.354   1.725   0.110
  142SOL     Hw  136   1.335   1.784   0.249
  143SOL     Ow  137   1.321   1.764   0.425
  143SOL     Hw  138   1.225   1.763   0.446
  143SOL     Hw  139   1.356   1.711   0.499
  144SOL     Ow  140   0.563   0.157   1.062
  144SOL     Hw  141   0.471   0.177   1.039
  144SOL     Hw  142   0.574   0.213   1.141
  145SOL     Ow  143   1.055   0.105   1.450
  145SOL     Hw  144   0.959   0.109   1.436
  145SOL     Hw  145   1.061   0.101   1.547
  146SOL     Ow  146   1.322   0.464   1.469
  146SOL     Hw  147   1.336   0.444   1.563
  146SOL     Hw  148   1.366   0.550   1.460
  147SOL     Ow  149   1.436   1.011   0.065
  147SOL     Hw  150   1.465   1.077  -0.002
  147SOL     Hw  151   1.479   1.049   0.145
  148SOL     Ow  152   0.944   0.317   0.115
  148SOL     Hw  153   0.907   0.296   0.203
  148SOL     Hw  154   1.029   0.358   0.141
  149SOL     Ow  155   0.589   0.639   1.203
  149SOL     Hw  156   0.588   0.727   1.158
  149SOL     Hw  157   0.576   0.669   1.296
  150SOL     Ow  158   0.590   0.653   0.678
  150SOL     Hw  159   0.616   0.635   0.586
  150SOL     Hw  160   0.493   0.655   0.666
  151SOL     Ow  161   1.123   0.683   0.546
  151SOL     Hw  162   1.200   0.662   0.488
  151SOL     Hw  163   1.098   0.772   0.514
  152SOL     Ow  164   1.221   0.617   0.796
  152SOL     Hw  165   1.175   0.658   0.720
  152SOL     Hw  166   1.268   0.546   0.748
  153SOL     Ow  167   0.331   0.676   1.355
  153SOL     Hw  168   0.341   0.584   1.382
  153SOL     Hw  169   0.399   0.719   1.411
  154SOL     Ow  170   0.602   0.363   0.069
  154SOL     Hw  171   0.633   0.451   0.039
  154SOL     Hw  172   0.634   0.360   0.160
  155SOL     Ow  173   0.019   0.307   0.734
  155SOL     Hw  174   0.102   0.311   0.686
  155SOL     Hw  175   0.046   0.343   0.821
  156SOL     Ow  176   0.136   0.499   0.307
  156SOL     Hw  177   0.210   0.523   0.249
  156SOL     Hw  178   0.075   0.571   0.288
  157SOL     Ow  179   1.168   0.792   1.280
  157SOL     Hw  180   1.203   0.733   1.209
  157SOL     Hw  181   1.111   0.730   1.330
  158SOL     Ow  182   0.884   0.412   0.755
  158SOL     Hw  183   0.795   0.400   0.794
  158SOL     Hw  184   0.940   0.371   0.824
  159SOL     Ow  185   0.330   0.582   0.618
  159SOL     Hw  186   0.258   0.587   0.553
  159SOL     Hw  187   0.363   0.491   0.608
  160SOL     Ow  188   0.642   0.578   0.418
  160SOL     Hw  189   0.625   0.628   0.334
  160SOL     Hw  190   0.739   0.584   0.429
  161SOL     Ow  191   1.245   0.359   1.054
  161SOL     Hw  192   1.164   0.326   1.009
  161SOL     Hw  193   1.220   0.339   1.147
  162SOL     Ow  194   0.563   0.679   0.181
  162SOL     Hw  195   0.604   0.667   0.093
  162SOL     Hw  196   0.469   0.659   0.160
  163SOL     Ow  197   0.959   0.721   0.953
  163SOL     Hw  198   1.016   0.656   0.910
  163SOL     Hw  199   0.929   0.671   1.033
  164SOL     Ow  200   0.435   0.331   0.606
  164SOL     Hw  201   0.484   0.304   0.526
  164SOL     Hw  202   0.371   0.257   0.616
  165SOL     Ow  203   0.862   0.584   1.173
  165SOL     Hw  204   0.773   0.619   1.193
  165SOL     Hw  205   0.908   0.597   1.259
  166SOL     Ow  206   0.866   1.106   0.366
  166SOL     Hw  207   0.791   1.075   0.312
  166SOL     Hw  208   0.818   1.140   0.446
  167SOL     Ow  209   1.536   1.143   1.291
  167SOL     Hw  210   1.488   1.107   1.214
  167SOL     Hw  211   1.617   1.174   1.246
  168SOL     Ow  212   1.177   0.462   0.211
  168SOL     Hw  213   1.138   0.544   0.173
  168SOL     Hw  214   1.244   0.504   0.268
  169SOL     Ow  215   1.340   0.619   0.373
  169SOL     Hw  216   1.350   0.705   0.330
  169SOL     Hw  217   1.430   0.603   0.408
  170SOL     Ow  218   0.431   1.112   0.922
  170SOL     Hw  219   0.355   1.051   0.912
  170SOL     Hw  220   0.484   1.085   0.845
  171SOL     Ow  221   1.082   1.268   0.331
  171SOL     Hw  222   1.003   1.211   0.346
  171SOL     Hw  223   1.042   1.357   0.342
  172SOL     Ow  224   0.082   0.971   1.435
  172SOL     Hw  225   0.020   0.906   1.396
  172SOL     Hw  226   0.075   0.950   1.530
  173SOL     Ow  227   1.798   0.675   0.323
  173SOL     Hw  228   1.757   0.650   0.237
  173SOL     Hw  229   1.821   0.768   0.302
  174SOL     Ow  230   1.665   1.528   0.375
  174SOL     Hw  231   1.663   1.487   0.288
  174SOL     Hw  232   1.610   1.469   0.429
  175SOL     Ow  233   1.381   1.025   1.032
  175SOL     Hw  234   1.286   1.005   1.018
  175SOL     Hw  235   1.422   0.951   0.985
  176SOL     Ow  236   0.657   1.444   0.695
  176SOL     Hw  237   0.683   1.530   0.658
  176SOL     Hw  238   0.561   1.454   0.700
  177SOL     Ow  239   0.213   0.888   0.137
  177SOL     Hw  240   0.128   0.933   0.140
  177SOL     Hw  241   0.269   0.950   0.188
  178SOL     Ow  242   0.727   1.205   0.574
  178SOL     Hw  243   0.672   1.145   0.629
  178SOL     Hw  244   0.710   1.291   0.618
  179SOL     Ow  245   0.831   1.623   1.280
  179SOL     Hw  246   0.899   1.689   1.256
  179SOL     Hw  247   0.851   1.611   1.374
  180SOL     Ow  248   0.650   1.710   0.575
  180SOL     Hw  249   0.557   1.718   0.604
  180SOL     Hw  250   0.691   1.790   0.615
  181SOL     Ow  251   1.158   1.201   1.235
  181SOL     Hw  252   1.206   1.128   1.194
  181SOL     Hw  253   1.123   1.161   1.315
  182SOL     Ow  254   1.454   1.333   0.142
  182SOL     Hw  255   1.362   1.307   0.121
  182SOL     Hw  256   1.483   1.262   0.202
  183SOL     Ow  257   1.862   1.756   0.163
  183SOL     Hw  258   1.775   1.797   0.182
  183SOL     Hw  259   1.919   1.835   0.173
  184SOL     Ow  260   0.267   0.426   1.475
  184SOL     Hw  261   0.237   0.513   1.507
  184SOL     Hw  262   0.278   0.380   1.560
  185SOL     Ow  263   1.551   1.110   0.296
  185SOL     Hw  264   1.506   1.060   0.369
  185SOL     Hw  265   1.638   1.123   0.338
  186SOL     Ow  266   0.265   1.583   1.225
  186SOL     Hw  267   0.241   1.596   1.318
  186SOL     Hw  268   0.362   1.565   1.236
  187SOL     Ow  269   0.667   1.390   0.261
  187SOL     Hw  270   0.731   1.346   0.317
  187SOL     Hw  271   0.688   1.484   0.279
  188SOL     Ow  272   0.335   1.083   0.297
  188SOL     Hw  273   0.379   1.153   0.244
  188SOL     Hw  274   0.281   1.140   0.356
  189SOL     Ow  275   1.172   0.308   1.308
  189SOL     Hw  276   1.136   0.233   1.361
  189SOL     Hw  277   1.230   0.353   1.373
  190SOL     Ow  278   1.249   0.280   0.454
  190SOL     Hw  279   1.214   0.338   0.384
  190SOL     Hw  280   1.286   0.345   0.518
  191SOL     Ow  281   0.967   1.510   0.324
  191SOL     Hw  282   1.003   1.549   0.242
  191SOL     Hw  283   0.886   1.564   0.336
  192SOL     Ow  284   0.900   0.530   0.510
  192SOL     Hw  285   0.978   0.589   0.521
  192SOL     Hw  286   0.892   0.496   0.602
  193SOL     Ow  287   1.020   0.591   1.405
  193SOL     Hw  288   1.068   0.507   1.396
  193SOL     Hw  289   1.002   0.592   1.501
  194SOL     Ow  290   1.010   0.186   0.577
  194SOL     Hw  291   1.008   0.246   0.652
  194SOL     Hw  292   1.104   0.193   0.550
  195SOL     Ow  293   0.731   1.648   0.322
  195SOL     Hw  294   0.730   1.731   0.269
  195SOL     Hw  295   0.700   1.678   0.410
  196SOL     Ow  296   0.587   0.315   0.372
  196SOL     Hw  297   0.591   0.412   0.387
  196SOL     Hw  298   0.682   0.294   0.374
  197SOL     Ow  299   1.458   0.777   0.890
  197SOL     Hw  300   1.371   0.736   0.880
  197SOL     Hw  301   1.504   0.710   0.945
  198SOL     Ow  302   0.436   1.301   0.150
  198SOL     Hw  303   0.490   1.257   0.082
  198SOL     Hw  304   0.508   1.344   0.201
  199SOL     Ow  305   0.300   0.629   0.114
  199SOL     Hw  306   0.263   0.590   0.033
  199SOL     Hw  307   0.271   0.723   0.111
  200SOL     Ow  308   1.598   1.711   1.056
  200SOL     Hw  309   1.592   1.777   0.984
  200SOL     Hw  310   1.694   1.713   1.077
  201SOL     Ow  311   0.309   0.119   0.907
  201SOL     Hw  312   0.360   0.036   0.920
  201SOL     Hw  313   0.307   0.126   0.810
  202SOL     Ow  314   0.196   1.529   0.569
  202SOL     Hw  315   0.183   1.578   0.484
  202SOL     Hw  316   0.111   1.548   0.613
  203SOL     Ow  317   1.085   1.594   0.088
  203SOL     Hw  318   1.050   1.571  -0.000
  203SOL     Hw  319   1.170   1.548   0.086
  204SOL     Ow  320   1.411   1.579   0.034
  204SOL     Hw  321   1.483   1.572  -0.032
  204SOL     Hw  322   1.429   1.495   0.081
  205SOL     Ow  323   0.621   1.163   0.000
  205SOL     Hw  324   0.593   1.101  -0.069
  205SOL     Hw  325   0.631   1.104   0.079
  206SOL     Ow  326   1.194   1.285   0.087
  206SOL     Hw  327   1.119   1.271   0.028
  206SOL     Hw  328   1.155   1.272   0.177
  207SOL     Ow  329   0.661   0.991   0.215
  207SOL     Hw  330   0.712   0.916   0.179
  207SOL     Hw  331   0.614   0.950   0.290
  208SOL     Ow  332   0.571   0.757   1.459
  208SOL     Hw  333   0.656   0.800   1.434
  208SOL     Hw  334   0.568   0.773   1.555
  209SOL     Ow  335   0.841   0.818   0.105
  209SOL     Hw  336   0.910   0.873   0.063
  209SOL     Hw  337   0.894   0.746   0.141
  210SOL     Ow  338   0.715   0.332   1.257
  210SOL     Hw  339   0.633   0.383   1.271
  210SOL     Hw  340   0.773   0.398   1.217
  211SOL     Ow  341   0.794   0.867   1.343
  211SOL     Hw  342   0.775   0.947   1.291
  211SOL     Hw  343   0.871   0.893   1.394
  212SOL     Ow  344   0.776   0.108   1.411
  212SOL     Hw  345   0.759   0.193   1.366
  212SOL     Hw  346   0.758   0.138   1.501
  213SOL     Ow  347   0.769   1.861   0.147
  213SOL     Hw  348   0.746   1.953   0.160
  213SOL     Hw  349   0.867   1.864   0.156
  214SOL     Ow  350   0.181   1.415   0.178
  214SOL     Hw  351   0.121   1.359   0.126
  214SOL     Hw  352   0.268   1.373   0.163
  215SOL     Ow  353   0.094   1.671   0.824
  215SOL     Hw  354   0.091   1.583   0.868
  215SOL     Hw  355   0.157   1.714   0.884
  216SOL     Ow  356   1.859   1.723   1.132
  216SOL     Hw  357   1.937   1.779   1.125
  216SOL     Hw  358   1.854   1.708   1.229
  217SOL     Ow  359   1.833   1.659   1.398
  217SOL     Hw  360   1.759   1.596   1.395
  217SOL     Hw  361   1.835   1.682   1.493
  218SOL     Ow  362   1.801   1.095   0.413
  218SOL     Hw  363   1.816   1.037   0.491
  218SOL     Hw  364   1.868   1.165   0.429
  219SOL     Ow  365   1.854   0.905   0.605
  219SOL     Hw  366   1.767   0.875   0.640
  219SOL     Hw  367   1.906   0.925   0.685
  220SOL     Ow  368   1.785   1.193   1.149
  220SOL     Hw  369   1.844   1.130   1.101
  220SOL     Hw  370   1.791   1.271   1.092
  221SOL     Ow  371   1.608   1.487   1.337
  221SOL     Hw  372   1.592   1.459   1.245
  221SOL     Hw  373   1.543   1.557   1.348
  222SOL     Ow  374   1.818   0.936   0.198
  222SOL     Hw  375   1.727   0.925   0.165
  222SOL     Hw  376   1.807   0.998   0.275
  223SOL     Ow  377   1.698   0.622   0.082
  223SOL     Hw  378   1.745   0.641  -0.002
  223SOL     Hw  379   1.650   0.540   0.058
  224SOL     Ow  380   1.596   0.802   0.655
  224SOL     Hw  381   1.590   0.707   0.633
  224SOL     Hw  382   1.550   0.805   0.742
  225SOL     Ow  383   0.077   0.972   1.088
  225SOL     Hw  384   0.125   0.986   1.004
  225SOL     Hw  385   0.154   0.940   1.141
  226SOL     Ow  386   1.587   0.382   0.017
  226SOL     Hw  387   1.536   0.306  -0.016
  226SOL     Hw  388   1.666   0.335   0.050
  227SOL     Ow  389   1.598   0.551   0.489
  227SOL     Hw  390   1.633   0.459   0.487
  227SOL     Hw  391   1.669   0.598   0.440
  228SOL     Ow  392   1.607   0.572   1.012
  228SOL     Hw  393   1.703   0.594   1.006
  228SOL     Hw  394   1.597   0.586   1.109
  229SOL     Ow  395   1.628   0.633   1.276
  229SOL     Hw  396   1.676   0.718   1.266
  229SOL     Hw  397   1.558   0.658   1.340
  230SOL     Ow  398   1.674   0.281   0.498
  230SOL     Hw  399   1.609   0.226   0.449
  230SOL     Hw  400   1.677   0.230   0.582
  231SOL     Ow  401   0.184   0.357   0.949
  231SOL     Hw  402   0.229   0.270   0.946
  231SOL     Hw  403   0.253   0.415   0.986
  232SOL     Ow  404  -0.013   0.717   1.027
  232SOL     Hw  405   0.065   0.685   0.980
  232SOL     Hw  406   0.016   0.806   1.054
  233SOL     Ow  407   1.815   0.267   0.130
  233SOL     Hw  408   1.894   0.212   0.118
  233SOL     Hw  409   1.854   0.344   0.175
  234SOL     Ow  410   0.082   0.249   0.414
  234SOL     Hw  411   0.102   0.336   0.372
  234SOL     Hw  412   0.010   0.270   0.475
  235SOL     Ow  413   1.524   1.775   0.647
  235SOL     Hw  414   1.607   1.776   0.596
  235SOL     Hw  415   1.548   1.825   0.727
  236SOL     Ow  416   3.058   0.218   1.312
  236SOL     Hw  417   2.984   0.200   1.253
  236SOL     Hw  418   3.127   0.223   1.244
  237SOL     Ow  419   0.535   1.562   1.269
  237SOL     Hw  420   0.626   1.535   1.286
  237SOL     Hw  421   0.545   1.660   1.277
  238SOL     Ow  422   0.309   1.911   1.397
  238SOL     Hw  423   0.233   1.970   1.394
  238SOL     Hw  424   0.313   1.887   1.491
  239SOL     Ow  425   0.546   1.836   1.278
  239SOL     Hw  426   0.460   1.862   1.318
  239SOL     Hw  427   0.545   1.885   1.194
  240SOL     Ow  428   0.989   1.836   1.197
  240SOL     Hw  429   0.943   1.879   1.123
  240SOL     Hw  430   0.996   1.907   1.263
  241SOL     Ow  431   1.219   1.685   1.198
  241SOL     Hw  432   1.138   1.738   1.208
  241SOL     Hw  433   1.288   1.752   1.220
  242SOL     Ow  434   1.426   1.868   1.202
  242SOL     Hw  435   1.485   1.802   1.159
  242SOL     Hw  436   1.476   1.950   1.188
  243SOL     Ow  437   0.264   1.767   1.019
  243SOL     Hw  438   0.343   1.720   0.986
  243SOL     Hw  439   0.248   1.713   1.100
  244SOL     Ow  440   0.472   1.627   0.921
  244SOL     Hw  441   0.459   1.536   0.955
  244SOL     Hw  442   0.561   1.646   0.957
  245SOL     Ow  443   0.729   1.644   1.024
  245SOL     Hw  444   0.743   1.551   0.998
  245SOL     Hw  445   0.757   1.639   1.118
  246SOL     Ow  446   1.035   0.244   0.912
  246SOL     Hw  447   0.960   0.183   0.923
  246SOL     Hw  448   1.102   0.189   0.865
  247SOL     Ow  449   1.536  -0.015   0.882
  247SOL     Hw  450   1.599   0.029   0.821
  247SOL     Hw  451   1.534   0.050   0.953
  248SOL     Ow  452   1.728   0.119   0.728
  248SOL     Hw  453   1.795   0.052   0.707
  248SOL     Hw  454   1.785   0.195   0.754
  249SOL     Ow  455   0.254   0.124   0.626
  249SOL     Hw  456   0.202   0.134   0.544
  249SOL     Hw  457   0.307   0.042   0.612
  250SOL     Ow  458   0.155   0.088   0.190
  250SOL     Hw  459   0.115   0.140   0.262
  250SOL     Hw  460   0.238   0.139   0.178
  251SOL     Ow  461   0.794   0.023   0.636
  251SOL     Hw  462   0.875   0.074   0.614
  251SOL     Hw  463   0.779   0.055   0.727
  252SOL     Ow  464   1.243   0.127   0.775
  252SOL     Hw  465   1.273   0.043   0.735
  252SOL     Hw  466   1.327   0.169   0.797
  253SOL     Ow  467   1.470   0.117   0.396
  253SOL     Hw  468   1.430   0.030   0.404
  253SOL     Hw  469   1.392   0.174   0.409
  254SOL     Ow  470   0.160   1.670   0.339
  254SOL     Hw  471   0.167   1.610   0.263
  254SOL     Hw  472   0.138   1.756   0.300
  255SOL     Ow  473   0.381   0.239   0.188
  255SOL     Hw  474   0.439   0.280   0.121
  255SOL     Hw  475   0.434   0.255   0.268
  256SOL     Ow  476   0.860   0.297   0.376
  256SOL     Hw  477   0.915   0.243   0.437
  256SOL     Hw  478   0.876   0.386   0.416
  257SOL     Ow  479   1.044   1.848   0.182
  257SOL     Hw  480   1.052   1.757   0.145
  257SOL     Hw  481   1.138   1.872   0.173
  258SOL     Ow  482   1.745   1.768   0.474
  258SOL     Hw  483   1.721   1.679   0.439
  258SOL     Hw  484   1.720   1.824   0.398
  259SOL     Ow  485   0.315   1.764   0.076
  259SOL     Hw  486   0.382   1.707   0.116
  259SOL     Hw  487   0.319   1.844   0.130
  260SOL     Ow  488   3.122   0.985   0.635
  260SOL     Hw  489   3.122   1.083   0.622
  260SOL     Hw  490   3.031   0.976   0.667
  261SOL     Ow  491   2.909   0.963   1.016
  261SOL     Hw  492   2.897   0.870   0.993
  261SOL     Hw  493   2.997   0.965   1.057
  262SOL     Ow  494   2.183   0.904   1.170
  262SOL     Hw  495   2.212   0.838   1.235
  262SOL     Hw  496   2.208   0.987   1.214
  263SOL     Ow  497   2.297   1.339   1.009
  263SOL     Hw  498   2.285   1.252   0.968
  263SOL     Hw  499   2.339   1.313   1.093
  264SOL     Ow  500   1.986   0.670   0.532
  264SOL     Hw  501   1.921   0.658   0.460
  264SOL     Hw  502   1.957   0.758   0.565
  265SOL     Ow  503   2.053   0.933   0.808
  265SOL     Hw  504   2.082   0.844   0.838
  265SOL     Hw  505   2.134   0.986   0.826
  266SOL     Ow  506   3.002   1.828   0.895
  266SOL     Hw  507   3.078   1.783   0.851
  266SOL     Hw  508   2.984   1.767   0.967
  267SOL     Ow  509   2.801   1.207   1.086
  267SOL     Hw  510   2.830   1.123   1.043
  267SOL     Hw  511   2.881   1.226   1.140
  268SOL     Ow  512   2.482   0.423   0.805
  268SOL     Hw  513   2.427   0.375   0.739
  268SOL     Hw  514   2.487   0.511   0.762
  269SOL     Ow  515   2.113   0.675   0.891
  269SOL     Hw  516   2.139   0.641   0.802
  269SOL     Hw  517   2.180   0.630   0.945
  270SOL     Ow  518   2.634   0.807   0.835
  270SOL     Hw  519   2.586   0.742   0.779
  270SOL     Hw  520   2.710   0.754   0.867
  271SOL     Ow  521   2.345   0.378   1.250
  271SOL     Hw  522   2.316   0.412   1.163
  271SOL     Hw  523   2.337   0.458   1.303
  272SOL     Ow  524   3.053   1.246   0.606
  272SOL     Hw  525   3.043   1.259   0.510
  272SOL     Hw  526   3.036   1.336   0.637
  273SOL     Ow  527   2.595   1.077   1.220
  273SOL     Hw  528   2.667   1.132   1.184
  273SOL     Hw  529   2.534   1.147   1.254
  274SOL     Ow  530   2.305   0.498   1.006
  274SOL     Hw  531   2.370   0.465   0.940
  274SOL     Hw  532   2.360   0.564   1.055
  275SOL     Ow  533   2.426   1.295   1.288
  275SOL     Hw  534   2.432   1.393   1.286
  275SOL     Hw  535   2.404   1.280   1.381
  276SOL     Ow  536   2.016   1.278   0.429
  276SOL     Hw  537   2.019   1.323   0.342
  276SOL     Hw  538   2.040   1.351   0.489
  277SOL     Ow  539   2.668   0.091   0.905
  277SOL     Hw  540   2.651   0.000   0.936
  277SOL     Hw  541   2.596   0.137   0.954
  278SOL     Ow  542   2.972   0.961   0.332
  278SOL     Hw  543   2.886   1.008   0.340
  278SOL     Hw  544   3.032   1.028   0.367
  279SOL     Ow  545   2.965   0.777   0.131
  279SOL     Hw  546   3.000   0.821   0.052
  279SOL     Hw  547   2.979   0.842   0.203
  280SOL     Ow  548   2.474   1.002   0.702
  280SOL     Hw  549   2.450   0.963   0.616
  280SOL     Hw  550   2.536   0.936   0.739
  281SOL     Ow  551   2.648   1.396   0.946
  281SOL     Hw  552   2.644   1.361   0.856
  281SOL     Hw  553   2.698   1.327   0.995
  282SOL     Ow  554   2.482   0.900   1.046
  282SOL     Hw  555   2.549   0.883   0.976
  282SOL     Hw  556   2.529   0.963   1.105
  283SOL     Ow  557   3.007   1.531   0.601
  283SOL     Hw  558   2.960   1.563   0.522
  283SOL     Hw  559   2.985   1.599   0.665
  284SOL     Ow  560   2.382   0.926   0.441
  284SOL     Hw  561   2.330   0.846   0.431
  284SOL     Hw  562   2.318   0.994   0.409
  285SOL     Ow  563   2.011   1.150   1.329
  285SOL     Hw  564   1.929   1.176   1.284
  285SOL     Hw  565   1.994   1.175   1.421
  286SOL     Ow  566   1.954   1.445   1.011
  286SOL     Hw  567   2.040   1.413   1.041
  286SOL     Hw  568   1.931   1.510   1.079
  287SOL     Ow  569   2.890   1.811   0.479
  287SOL     Hw  570   2.909   1.817   0.384
  287SOL     Hw  571   2.906   1.903   0.508
  288SOL     Ow  572   2.271   1.698   0.673
  288SOL     Hw  573   2.213   1.629   0.634
  288SOL     Hw  574   2.291   1.659   0.761
  289SOL     Ow  575   2.449   0.167   1.061
  289SOL     Hw  576   2.362   0.179   1.018
  289SOL     Hw  577   2.439   0.218   1.142
  290SOL     Ow  578   2.843   0.294   0.124
  290SOL     Hw  579   2.808   0.270   0.212
  290SOL     Hw  580   2.927   0.335   0.149
  291SOL     Ow  581   2.432   0.667   1.180
  291SOL     Hw  582   2.447   0.753   1.134
  291SOL     Hw  583   2.385   0.698   1.260
  292SOL     Ow  584   2.468   0.660   0.674
  292SOL     Hw  585   2.484   0.637   0.580
  292SOL     Hw  586   2.370   0.654   0.675
  293SOL     Ow  587   2.956   0.704   0.459
  293SOL     Hw  588   2.965   0.788   0.411
  293SOL     Hw  589   3.036   0.704   0.515
  294SOL     Ow  590   2.262   0.735   1.398
  294SOL     Hw  591   2.179   0.766   1.438
  294SOL     Hw  592   2.316   0.733   1.478
  295SOL     Ow  593   2.506   0.365   0.065
  295SOL     Hw  594   2.536   0.456   0.051
  295SOL     Hw  595   2.525   0.351   0.159
  296SOL     Ow  596   1.900   0.328   0.778
  296SOL     Hw  597   1.917   0.412   0.734
  296SOL     Hw  598   1.946   0.342   0.863
  297SOL     Ow  599   1.972   0.465   0.261
  297SOL     Hw  600   2.047   0.506   0.213
  297SOL     Hw  601   1.919   0.544   0.283
  298SOL     Ow  602   3.020   0.797   1.309
  298SOL     Hw  603   3.046   0.737   1.238
  298SOL     Hw  604   2.987   0.735   1.377
  299SOL     Ow  605   2.757   0.398   0.757
  299SOL     Hw  606   2.664   0.399   0.788
  299SOL     Hw  607   2.804   0.391   0.843
  300SOL     Ow  608   2.210   0.577   0.654
  300SOL     Hw  609   2.133   0.600   0.596
  300SOL     Hw  610   2.234   0.488   0.622
  301SOL     Ow  611   2.508   0.570   0.418
  301SOL     Hw  612   2.491   0.616   0.333
  301SOL     Hw  613   2.605   0.573   0.427
  302SOL     Ow  614   2.437   0.661   0.173
  302SOL     Hw  615   2.485   0.665   0.088
  302SOL     Hw  616   2.344   0.651   0.145
  303SOL     Ow  617   2.835   0.656   0.958
  303SOL     Hw  618   2.795   0.612   1.036
  303SOL     Hw  619   2.930   0.655   0.981
  304SOL     Ow  620   2.320   0.325   0.599
  304SOL     Hw  621   2.365   0.300   0.517
  304SOL     Hw  622   2.256   0.252   0.609
  305SOL     Ow  623   2.700   0.580   1.186
  305SOL     Hw  624   2.606   0.607   1.182
  305SOL     Hw  625   2.733   0.652   1.243
  306SOL     Ow  626   2.747   1.131   0.349
  306SOL     Hw  627   2.668   1.098   0.301
  306SOL     Hw  628   2.705   1.154   0.436
  307SOL     Ow  629   2.290   1.060   0.902
  307SOL     Hw  630   2.356   1.053   0.829
  307SOL     Hw  631   2.331   1.000   0.968
  308SOL     Ow  632   2.976   1.273   0.338
  308SOL     Hw  633   2.890   1.227   0.347
  308SOL     Hw  634   2.947   1.367   0.348
  309SOL     Ow  635   2.533   1.444   0.669
  309SOL     Hw  636   2.552   1.532   0.630
  309SOL     Hw  637   2.450   1.461   0.714
  310SOL     Ow  638   2.092   0.886   0.167
  310SOL     Hw  639   1.997   0.910   0.172
  310SOL     Hw  640   2.134   0.959   0.216
  311SOL     Ow  641   2.618   1.202   0.572
  311SOL     Hw  642   2.566   1.142   0.628
  311SOL     Hw  643   2.588   1.290   0.606
  312SOL     Ow  644   2.715   1.606   1.267
  312SOL     Hw  645   2.763   1.546   1.326
  312SOL     Hw  646   2.783   1.672   1.245
  313SOL     Ow  647   2.523   1.709   0.570
  313SOL     Hw  648   2.430   1.719   0.600
  313SOL     Hw  649   2.565   1.790   0.608
  314SOL     Ow  650   3.050   1.173   1.217
  314SOL     Hw  651   3.105   1.108   1.169
  314SOL     Hw  652   3.052   1.137   1.307
  315SOL     Ow  653   2.110   1.582   1.234
  315SOL     Hw  654   2.047   1.570   1.307
  315SOL     Hw  655   2.193   1.555   1.275
  316SOL     Ow  656   2.556   1.387   0.265
  316SOL     Hw  657   2.624   1.341   0.315
  316SOL     Hw  658   2.578   1.481   0.285
  317SOL     Ow  659   2.200   1.095   0.320
  317SOL     Hw  660   2.138   1.150   0.371
  317SOL     Hw  661   2.248   1.163   0.269
  318SOL     Ow  662   2.874   1.521   0.323
  318SOL     Hw  663   2.913   1.562   0.243
  318SOL     Hw  664   2.789   1.569   0.331
  319SOL     Ow  665   2.767   0.517   0.495
  319SOL     Hw  666   2.834   0.589   0.481
  319SOL     Hw  667   2.777   0.502   0.591
  320SOL     Ow  668   2.864   0.640   1.475
  320SOL     Hw  669   2.804   0.712   1.449
  320SOL     Hw  670   2.854   0.640   1.573
  321SOL     Ow  671   2.902   0.223   0.612
  321SOL     Hw  672   2.846   0.287   0.661
  321SOL     Hw  673   2.989   0.246   0.652
  322SOL     Ow  674   2.627   1.642   0.326
  322SOL     Hw  675   2.630   1.726   0.274
  322SOL     Hw  676   2.591   1.673   0.412
  323SOL     Ow  677   2.480   0.306   0.361
  323SOL     Hw  678   2.481   0.401   0.386
  323SOL     Hw  679   2.574   0.282   0.376
  324SOL     Ow  680   2.322   1.296   0.168
  324SOL     Hw  681   2.374   1.259   0.093
  324SOL     Hw  682   2.396   1.339   0.216
  325SOL     Ow  683   2.156   0.630   0.108
  325SOL     Hw  684   2.126   0.623   0.016
  325SOL     Hw  685   2.133   0.724   0.128
  326SOL     Ow  686   2.210   0.140   0.903
  326SOL     Hw  687   2.249   0.051   0.911
  326SOL     Hw  688   2.189   0.143   0.807
  327SOL     Ow  689   2.081   1.526   0.561
  327SOL     Hw  690   2.072   1.592   0.489
  327SOL     Hw  691   2.027   1.563   0.634
  328SOL     Ow  692   2.989   1.619   0.085
  328SOL     Hw  693   2.941   1.578   0.011
  328SOL     Hw  694   3.078   1.616   0.046
  329SOL     Ow  695   2.499   1.175  -0.006
  329SOL     Hw  696   2.496   1.109  -0.077
  329SOL     Hw  697   2.509   1.119   0.075
  330SOL     Ow  698   3.022   1.286   0.069
  330SOL     Hw  699   2.931   1.279   0.041
  330SOL     Hw  700   3.014   1.285   0.167
  331SOL     Ow  701   2.532   1.014   0.218
  331SOL     Hw  702   2.584   0.938   0.182
  331SOL     Hw  703   2.486   0.973   0.294
  332SOL     Ow  704   2.697   0.835   0.090
  332SOL     Hw  705   2.676   0.765   0.026
  332SOL     Hw  706   2.789   0.811   0.114
  333SOL     Ow  707   2.628   0.322   1.274
  333SOL     Hw  708   2.536   0.354   1.277
  333SOL     Hw  709   2.674   0.400   1.239
  334SOL     Ow  710   2.732   0.830   1.305
  334SOL     Hw  711   2.679   0.912   1.301
  334SOL     Hw  712   2.822   0.865   1.298
  335SOL     Ow  713   2.672   0.079   1.396
  335SOL     Hw  714   2.661   0.169   1.360
  335SOL     Hw  715   2.677   0.102   1.490
  336SOL     Ow  716   2.678   1.857   0.156
  336SOL     Hw  717   2.654   1.948   0.174
  336SOL     Hw  718   2.775   1.860   0.170
  337SOL     Ow  719   2.057   1.365   0.170
  337SOL     Hw  720   2.042   1.339   0.078
  337SOL     Hw  721   2.154   1.353   0.175
  338SOL     Ow  722   1.917   1.855   0.663
  338SOL     Hw  723   1.860   1.820   0.591
  338SOL     Hw  724   1.928   1.773   0.717
  339SOL     Ow  725   1.981   1.633   0.807
  339SOL     Hw  726   1.951   1.553   0.856
  339SOL     Hw  727   2.027   1.679   0.880
  340SOL     Ow  728   1.949   0.991   1.053
  340SOL     Hw  729   1.975   0.981   0.959
  340SOL     Hw  730   2.034   0.966   1.097
  341SOL     Ow  731   2.061   0.353   1.005
  341SOL     Hw  732   2.111   0.274   0.976
  341SOL     Hw  733   2.133   0.419   1.010
  342SOL     Ow  734   1.871   0.649   1.048
  342SOL     Hw  735   1.953   0.674   1.001
  342SOL     Hw  736   1.853   0.729   1.102
  343SOL     Ow  737   1.961   0.267   0.450
  343SOL     Hw  738   1.974   0.344   0.391
  343SOL     Hw  739   1.865   0.272   0.466
  344SOL     Ow  740   2.439   1.575   1.293
  344SOL     Hw  741   2.537   1.578   1.284
  344SOL     Hw  742   2.425   1.647   1.355
  345SOL     Ow  743   2.183   1.946   1.385
  345SOL     Hw  744   2.094   1.962   1.347
  345SOL     Hw  745   2.159   1.906   1.470
  346SOL     Ow  746   2.454   1.935   1.353
  346SOL     Hw  747   2.464   1.905   1.261
  346SOL     Hw  748   2.357   1.921   1.365
  347SOL     Ow  749   2.859   1.823   1.167
  347SOL     Hw  750   2.810   1.851   1.088
  347SOL     Hw  751   2.888   1.906   1.205
  348SOL     Ow  752   2.142   1.744   1.016
  348SOL     Hw  753   2.218   1.694   0.980
  348SOL     Hw  754   2.127   1.692   1.098
  349SOL     Ow  755   2.347   1.593   0.913
  349SOL     Hw  756   2.333   1.502   0.948
  349SOL     Hw  757   2.433   1.616   0.955
  350SOL     Ow  758   2.598   1.647   1.020
  350SOL     Hw  759   2.620   1.557   0.984
  350SOL     Hw  760   2.631   1.633   1.111
  351SOL     Ow  761   2.901   0.240   0.957
  351SOL     Hw  762   2.968   0.208   0.896
  351SOL     Hw  763   2.824   0.183   0.938
  352SOL     Ow  764   2.124   0.131   0.629
  352SOL     Hw  765   2.109   0.048   0.582
  352SOL     Hw  766   2.057   0.188   0.584
  353SOL     Ow  767   2.043   0.118   0.214
  353SOL     Hw  768   2.128   0.159   0.185
  353SOL     Hw  769   2.025   0.170   0.295
  354SOL     Ow  770   2.697   0.029   0.634
  354SOL     Hw  771   2.777   0.083   0.627
  354SOL     Hw  772   2.666   0.055   0.723
  355SOL     Ow  773   2.063   1.706   0.351
  355SOL     Hw  774   1.988   1.681   0.294
  355SOL     Hw  775   2.050   1.802   0.356
  356SOL     Ow  776   2.281   0.241   0.178
  356SOL     Hw  777   2.337   0.283   0.111
  356SOL     Hw  778   2.337   0.255   0.257
  357SOL     Ow  779   2.754   0.272   0.385
  357SOL     Hw  780   2.812   0.232   0.453
  357SOL     Hw  781   2.759   0.366   0.416
  358SOL     Ow  782   2.948   1.859   0.206
  358SOL     Hw  783   2.969   1.774   0.162
  358SOL     Hw  784   3.035   1.904   0.201
  359SOL     Ow  785   2.227   1.797   0.096
  359SOL     Hw  786   2.266   1.715   0.066
  359SOL     Hw  787   2.180   1.771   0.176
  360SOL     Ow  788   1.221   2.880   0.660
  360SOL     Hw  789   1.151   2.853   0.598
  360SOL     Hw  790   1.212   2.977   0.657
  361SOL     Ow  791   1.106   2.814   1.051
  361SOL     Hw  792   1.065   2.748   0.991
  361SOL     Hw  793   1.114   2.759   1.131
  362SOL     Ow  794   0.375   2.814   1.283
  362SOL     Hw  795   0.351   2.723   1.306
  362SOL     Hw  796   0.443   2.798   1.213
  363SOL     Ow  797   1.482   3.107   0.863
  363SOL     Hw  798   1.447   3.037   0.920
  363SOL     Hw  799   1.499   3.180   0.926
  364SOL     Ow  800   0.414   3.233   1.008
  364SOL     Hw  801   0.396   3.143   0.972
  364SOL     Hw  802   0.511   3.227   1.015
  365SOL     Ow  803   0.089   2.597   0.590
  365SOL     Hw  804   0.045   2.547   0.660
  365SOL     Hw  805   0.076   2.690   0.616
  366SOL     Ow  806   0.178   2.841   0.872
  366SOL     Hw  807   0.124   2.849   0.791
  366SOL     Hw  808   0.201   2.746   0.866
  367SOL     Ow  809   0.935   3.029   1.082
  367SOL     Hw  810   0.977   2.951   1.040
  367SOL     Hw  811   1.013   3.064   1.128
  368SOL     Ow  812   1.809   2.219   1.171
  368SOL     Hw  813   1.862   2.254   1.097
  368SOL     Hw  814   1.836   2.278   1.245
  369SOL     Ow  815   1.221   2.528   1.083
  369SOL     Hw  816   1.221   2.530   0.985
  369SOL     Hw  817   1.242   2.433   1.098
  370SOL     Ow  818   0.599   2.298   0.807
  370SOL     Hw  819   0.547   2.246   0.743
  370SOL     Hw  820   0.605   2.384   0.761
  371SOL     Ow  821   1.377   2.327   0.639
  371SOL     Hw  822   1.455   2.363   0.592
  371SOL     Hw  823   1.418   2.300   0.725
  372SOL     Ow  824   0.252   2.575   0.885
  372SOL     Hw  825   0.272   2.542   0.795
  372SOL     Hw  826   0.308   2.515   0.936
  373SOL     Ow  827   0.700   2.704   0.868
  373SOL     Hw  828   0.672   2.634   0.804
  373SOL     Hw  829   0.794   2.678   0.883
  374SOL     Ow  830   1.862   2.370   1.400
  374SOL     Hw  831   1.795   2.439   1.382
  374SOL     Hw  832   1.830   2.331   1.483
  375SOL     Ow  833   0.473   2.211   1.235
  375SOL     Hw  834   0.416   2.257   1.171
  375SOL     Hw  835   0.419   2.214   1.316
  376SOL     Ow  836   1.191   3.147   0.590
  376SOL     Hw  837   1.153   3.146   0.499
  376SOL     Hw  838   1.149   3.227   0.628
  377SOL     Ow  839   0.701   3.017   1.215
  377SOL     Hw  840   0.654   3.092   1.178
  377SOL     Hw  841   0.784   3.023   1.162
  378SOL     Ow  842   1.477   2.295   0.890
  378SOL     Hw  843   1.449   2.232   0.958
  378SOL     Hw  844   1.531   2.356   0.944
  379SOL     Ow  845   0.422   2.380   1.003
  379SOL     Hw  846   0.485   2.338   0.941
  379SOL     Hw  847   0.485   2.421   1.066
  380SOL     Ow  848   0.174   3.121   0.426
  380SOL     Hw  849   0.146   3.176   0.350
  380SOL     Hw  850   0.184   3.188   0.497
  381SOL     Ow  851   1.515   3.323   1.033
  381SOL     Hw  852   1.521   3.408   0.986
  381SOL     Hw  853   1.431   3.333   1.083
  382SOL     Ow  854   1.544   2.121   1.125
  382SOL     Hw  855   1.638   2.149   1.132
  382SOL     Hw  856   1.503   2.171   1.196
  383SOL     Ow  857   0.807   1.903   0.963
  383SOL     Hw  858   0.788   1.807   0.976
  383SOL     Hw  859   0.725   1.942   0.999
  384SOL     Ow  860   1.361   3.487   0.695
  384SOL     Hw  861   1.406   3.406   0.661
  384SOL     Hw  862   1.423   3.515   0.765
  385SOL     Ow  863   1.458   3.238   0.619
  385SOL     Hw  864   1.373   3.197   0.595
  385SOL     Hw  865   1.482   3.182   0.696
  386SOL     Ow  866   1.063   2.817   0.440
  386SOL     Hw  867   1.115   2.817   0.358
  386SOL     Hw  868   0.990   2.880   0.417
  387SOL     Ow  869   1.085   2.622   0.141
  387SOL     Hw  870   1.133   2.603   0.059
  387SOL     Hw  871   1.151   2.678   0.187
  388SOL     Ow  872   1.818   2.834   1.293
  388SOL     Hw  873   1.745   2.894   1.273
  388SOL     Hw  874   1.872   2.844   1.212
  389SOL     Ow  875   1.431   2.835   0.491
  389SOL     Hw  876   1.362   2.853   0.559
  389SOL     Hw  877   1.495   2.785   0.546
  390SOL     Ow  878   1.407   2.808   1.469
  390SOL     Hw  879   1.342   2.755   1.420
  390SOL     Hw  880   1.406   2.759   1.554
  391SOL     Ow  881   0.578   2.897   0.707
  391SOL     Hw  882   0.557   2.855   0.621
  391SOL     Hw  883   0.627   2.826   0.753
  392SOL     Ow  884   0.705   3.189   0.965
  392SOL     Hw  885   0.689   3.209   0.870
  392SOL     Hw  886   0.788   3.139   0.961
  393SOL     Ow  887   0.579   2.777   1.103
  393SOL     Hw  888   0.615   2.754   1.014
  393SOL     Hw  889   0.606   2.870   1.108
  394SOL     Ow  890   1.284   3.342   1.178
  394SOL     Hw  891   1.230   3.273   1.218
  394SOL     Hw  892   1.233   3.422   1.195
  395SOL     Ow  893   1.290   2.764   0.267
  395SOL     Hw  894   1.335   2.809   0.192
  395SOL     Hw  895   1.341   2.799   0.344
  396SOL     Ow  896   1.100   3.396   0.651
  396SOL     Hw  897   1.064   3.448   0.578
  396SOL     Hw  898   1.184   3.441   0.670
  397SOL     Ow  899   1.665   1.923   0.260
  397SOL     Hw  900   1.692   2.005   0.215
  397SOL     Hw  901   1.580   1.951   0.300
  398SOL     Ow  902   0.502   2.804   0.454
  398SOL     Hw  903   0.445   2.726   0.451
  398SOL     Hw  904   0.448   2.868   0.403
  399SOL     Ow  905   1.778   3.392   0.113
  399SOL     Hw  906   1.753   3.478   0.154
  399SOL     Hw  907   1.862   3.375   0.156
  400SOL     Ow  908   0.073   2.931   1.387
  400SOL     Hw  909   0.107   2.944   1.296
  400SOL     Hw  910   0.041   2.839   1.377
  401SOL     Ow  911   0.132   3.358   1.009
  401SOL     Hw  912   0.091   3.274   1.030
  401SOL     Hw  913   0.226   3.333   1.005
  402SOL     Ow  914   0.411   3.500   0.645
  402SOL     Hw  915   0.340   3.434   0.626
  402SOL     Hw  916   0.425   3.492   0.741
  403SOL     Ow  917   0.566   2.010   1.062
  403SOL     Hw  918   0.485   2.015   1.008
  403SOL     Hw  919   0.550   2.082   1.126
  404SOL     Ow  920   1.004   2.008   1.414
  404SOL     Hw  921   0.907   2.010   1.427
  404SOL     Hw  922   1.033   1.964   1.495
  405SOL     Ow  923   1.446   2.888   0.075
  405SOL     Hw  924   1.468   2.954   0.005
  405SOL     Hw  925   1.481   2.937   0.152
  406SOL     Ow  926   0.968   2.255   0.128
  406SOL     Hw  927   1.021   2.178   0.101
  406SOL     Hw  928   0.928   2.227   0.212
  407SOL     Ow  929   0.559   2.524   1.196
  407SOL     Hw  930   0.562   2.616   1.162
  407SOL     Hw  931   0.490   2.528   1.265
  408SOL     Ow  932   0.591   2.540   0.677
  408SOL     Hw  933   0.618   2.521   0.584
  408SOL     Hw  934   0.494   2.527   0.667
  409SOL     Ow  935   1.117   2.571   0.552
  409SOL     Hw  936   1.191   2.548   0.493
  409SOL     Hw  937   1.090   2.659   0.516
  410SOL     Ow  938   1.244   2.522   0.799
  410SOL     Hw  939   1.193   2.557   0.724
  410SOL     Hw  940   1.279   2.441   0.758
  411SOL     Ow  941   0.378   2.552   1.415
  411SOL     Hw  942   0.351   2.458   1.423
  411SOL     Hw  943   0.335   2.587   1.494
  412SOL     Ow  944   0.656   2.237   0.069
  412SOL     Hw  945   0.689   2.328   0.064
  412SOL     Hw  946   0.629   2.232   0.163
  413SOL     Ow  947   0.035   2.314   0.705
  413SOL     Hw  948   0.066   2.247   0.643
  413SOL     Hw  949   0.081   2.288   0.788
  414SOL     Ow  950   0.138   2.363   0.290
  414SOL     Hw  951   0.067   2.365   0.226
  414SOL     Hw  952   0.201   2.425   0.248
  415SOL     Ow  953   1.111   2.672   1.289
  415SOL     Hw  954   1.156   2.612   1.224
  415SOL     Hw  955   1.079   2.605   1.352
  416SOL     Ow  956   0.883   2.322   0.779
  416SOL     Hw  957   0.792   2.298   0.805
  416SOL     Hw  958   0.931   2.240   0.805
  417SOL     Ow  959   0.333   2.461   0.643
  417SOL     Hw  960   0.251   2.482   0.593
  417SOL     Hw  961   0.347   2.366   0.624
  418SOL     Ow  962   0.640   2.462   0.419
  418SOL     Hw  963   0.622   2.508   0.333
  418SOL     Hw  964   0.738   2.465   0.426
  419SOL     Ow  965   1.257   2.261   1.126
  419SOL     Hw  966   1.241   2.174   1.087
  419SOL     Hw  967   1.220   2.250   1.216
  420SOL     Ow  968   0.558   2.546   0.175
  420SOL     Hw  969   0.598   2.547   0.086
  420SOL     Hw  970   0.463   2.534   0.155
  421SOL     Ow  971   0.952   2.612   0.939
  421SOL     Hw  972   0.979   2.539   0.882
  421SOL     Hw  973   0.923   2.565   1.020
  422SOL     Ow  974   0.429   2.193   0.606
  422SOL     Hw  975   0.469   2.174   0.520
  422SOL     Hw  976   0.387   2.107   0.627
  423SOL     Ow  977   0.841   2.498   1.168
  423SOL     Hw  978   0.745   2.488   1.173
  423SOL     Hw  979   0.870   2.423   1.221
  424SOL     Ow  980   0.870   3.006   0.372
  424SOL     Hw  981   0.796   2.973   0.317
  424SOL     Hw  982   0.821   3.036   0.453
  425SOL     Ow  983   1.547   3.040   1.303
  425SOL     Hw  984   1.492   2.999   1.235
  425SOL     Hw  985   1.615   3.083   1.247
  426SOL     Ow  986   1.232   2.316   0.219
  426SOL     Hw  987   1.142   2.344   0.194
  426SOL     Hw  988   1.264   2.393   0.269
  427SOL     Ow  989   1.331   2.514   0.381
  427SOL     Hw  990   1.335   2.601   0.336
  427SOL     Hw  991   1.423   2.501   0.411
  428SOL     Ow  992   0.415   2.978   0.913
  428SOL     Hw  993   0.334   2.927   0.891
  428SOL     Hw  994   0.474   2.958   0.837
  429SOL     Ow  995   1.081   3.172   0.334
  429SOL     Hw  996   1.001   3.117   0.343
  429SOL     Hw  997   1.043   3.263   0.335
  430SOL     Ow  998   1.802   2.559   0.327
  430SOL     Hw  999   1.758   2.534   0.242
  430SOL     Hw 1000   1.823   2.652   0.304
  431SOL     Ow 1001   1.728   3.343   0.392
  431SOL     Hw 1002   1.692   3.329   0.303
  431SOL     Hw 1003   1.653   3.324   0.449
  432SOL     Ow 1004   1.378   2.899   1.041
  432SOL     Hw 1005   1.287   2.869   1.024
  432SOL     Hw 1006   1.425   2.826   0.995
  433SOL     Ow 1007   0.665   3.330   0.715
  433SOL     Hw 1008   0.592   3.375   0.669
  433SOL     Hw 1009   0.731   3.401   0.718
  434SOL     Ow 1010   0.198   2.776   0.132
  434SOL     Hw 1011   0.157   2.849   0.086
  434SOL     Hw 1012   0.255   2.825   0.195
  435SOL     Ow 1013   0.736   3.091   0.590
  435SOL     Hw 1014   0.675   3.029   0.634
  435SOL     Hw 1015   0.710   3.177   0.629
  436SOL     Ow 1016   0.800   3.472   1.294
  436SOL     Hw 1017   0.782   3.562   1.331
  436SOL     Hw 1018   0.889   3.460   1.328
  437SOL     Ow 1019   1.188   3.054   1.216
  437SOL     Hw 1020   1.235   3.063   1.132
  437SOL     Hw 1021   1.208   2.961   1.233
  438SOL     Ow 1022   1.450   3.228   0.141
  438SOL     Hw 1023   1.359   3.197   0.118
  438SOL     Hw 1024   1.474   3.160   0.207
  439SOL     Ow 1025   0.308   2.289   1.471
  439SOL     Hw 1026   0.218   2.257   1.487
  439SOL     Hw 1027   0.350   2.259   1.553
  440SOL     Ow 1028   1.526   3.025   0.311
  440SOL     Hw 1029   1.482   2.975   0.382
  440SOL     Hw 1030   1.615   3.034   0.350
  441SOL     Ow 1031   0.658   3.317   0.270
  441SOL     Hw 1032   0.669   3.406   0.308
  441SOL     Hw 1033   0.743   3.278   0.292
  442SOL     Ow 1034   0.343   2.956   0.291
  442SOL     Hw 1035   0.385   3.032   0.246
  442SOL     Hw 1036   0.278   3.005   0.348
  443SOL     Ow 1037   1.150   2.236   1.380
  443SOL     Hw 1038   1.097   2.154   1.384
  443SOL     Hw 1039   1.207   2.222   1.458
  444SOL     Ow 1040   1.232   2.172   0.462
  444SOL     Hw 1041   1.236   2.220   0.376
  444SOL     Hw 1042   1.276   2.235   0.523
  445SOL     Ow 1043   0.967   3.419   0.330
  445SOL     Hw 1044   1.004   3.455   0.246
  445SOL     Hw 1045   0.889   3.477   0.342
  446SOL     Ow 1046   0.897   2.411   0.518
  446SOL     Hw 1047   0.975   2.470   0.524
  446SOL     Hw 1048   0.890   2.384   0.613
  447SOL     Ow 1049   1.012   2.471   1.455
  447SOL     Hw 1050   1.047   2.389   1.414
  447SOL     Hw 1051   1.033   2.451   1.548
  448SOL     Ow 1052   1.005   2.056   0.563
  448SOL     Hw 1053   1.089   2.096   0.530
  448SOL     Hw 1054   1.018   2.068   0.660
  449SOL     Ow 1055   0.735   3.561   0.378
  449SOL     Hw 1056   0.704   3.648   0.349
  449SOL     Hw 1057   0.746   3.578   0.474
  450SOL     Ow 1058   0.575   2.206   0.338
  450SOL     Hw 1059   0.667   2.180   0.357
  450SOL     Hw 1060   0.578   2.300   0.368
  451SOL     Ow 1061   1.460   2.664   0.905
  451SOL     Hw 1062   1.379   2.619   0.874
  451SOL     Hw 1063   1.502   2.594   0.960
  452SOL     Ow 1064   0.439   3.187   0.164
  452SOL     Hw 1065   0.494   3.150   0.093
  452SOL     Hw 1066   0.507   3.243   0.209
  453SOL     Ow 1067   0.293   2.521   0.118
  453SOL     Hw 1068   0.250   2.479   0.040
  453SOL     Hw 1069   0.258   2.613   0.114
  454SOL     Ow 1070   0.323   2.014   0.927
  454SOL     Hw 1071   0.318   1.992   0.831
  454SOL     Hw 1072   0.294   1.929   0.967
  455SOL     Ow 1073   0.184   3.360   0.589
  455SOL     Hw 1074   0.162   3.401   0.502
  455SOL     Hw 1075   0.105   3.381   0.640
  456SOL     Ow 1076   1.077   3.498   0.091
  456SOL     Hw 1077   1.050   3.465   0.004
  456SOL     Hw 1078   1.170   3.512   0.074
  457SOL     Ow 1079   1.418   3.469   0.023
  457SOL     Hw 1080   1.486   3.440  -0.041
  457SOL     Hw 1081   1.422   3.391   0.082
  458SOL     Ow 1082   0.622   3.055   0.002
  458SOL     Hw 1083   0.596   2.988  -0.064
  458SOL     Hw 1084   0.636   3.000   0.082
  459SOL     Ow 1085   1.206   3.138   0.093
  459SOL     Hw 1086   1.173   3.053   0.058
  459SOL     Hw 1087   1.153   3.150   0.175
  460SOL     Ow 1088   0.667   2.890   0.220
  460SOL     Hw 1089   0.723   2.819   0.181
  460SOL     Hw 1090   0.617   2.841   0.288
  461SOL     Ow 1091   0.822   2.702   0.103
  461SOL     Hw 1092   0.790   2.626   0.053
  461SOL     Hw 1093   0.914   2.677   0.121
  462SOL     Ow 1094   0.712   2.294   1.362
  462SOL     Hw 1095   0.640   2.261   1.306
  462SOL     Hw 1096   0.732   2.212   1.410
  463SOL     Ow 1097   0.891   2.858   1.371
  463SOL     Hw 1098   0.824   2.876   1.302
  463SOL     Hw 1099   0.946   2.791   1.327
  464SOL     Ow 1100   0.729   1.999   1.428
  464SOL     Hw 1101   0.668   1.941   1.378
  464SOL     Hw 1102   0.719   1.961   1.517
  465SOL     Ow 1103   0.175   3.265   0.190
  465SOL     Hw 1104   0.140   3.249   0.100
  465SOL     Hw 1105   0.270   3.245   0.174
  466SOL     Ow 1106   0.051   3.530   0.798
  466SOL     Hw 1107   0.079   3.481   0.877
  466SOL     Hw 1108   0.106   3.609   0.801
  467SOL     Ow 1109   1.785   2.979   0.413
  467SOL     Hw 1110   1.801   2.920   0.490
  467SOL     Hw 1111   1.859   3.044   0.424
  468SOL     Ow 1112   1.832   2.789   0.609
  468SOL     Hw 1113   1.742   2.753   0.627
  468SOL     Hw 1114   1.871   2.793   0.698
  469SOL     Ow 1115   1.795   3.099   1.174
  469SOL     Hw 1116   1.851   3.041   1.121
  469SOL     Hw 1117   1.818   3.185   1.133
  470SOL     Ow 1118   1.821   2.812   0.203
  470SOL     Hw 1119   1.741   2.802   0.150
  470SOL     Hw 1120   1.796   2.876   0.274
  471SOL     Ow 1121   1.702   2.509   0.084
  471SOL     Hw 1122   1.747   2.529  -0.001
  471SOL     Hw 1123   1.657   2.424   0.063
  472SOL     Ow 1124   1.586   2.678   0.658
  472SOL     Hw 1125   1.580   2.585   0.629
  472SOL     Hw 1126   1.543   2.675   0.747
  473SOL     Ow 1127   0.163   2.942   1.129
  473SOL     Hw 1128   0.166   2.913   1.034
  473SOL     Hw 1129   0.246   2.904   1.162
  474SOL     Ow 1130   1.592   2.262   0.032
  474SOL     Hw 1131   1.534   2.191   0.004
  474SOL     Hw 1132   1.668   2.211   0.066
  475SOL     Ow 1133   1.593   2.444   0.489
  475SOL     Hw 1134   1.623   2.350   0.487
  475SOL     Hw 1135   1.667   2.486   0.441
  476SOL     Ow 1136   1.613   2.480   1.050
  476SOL     Hw 1137   1.707   2.484   1.023
  476SOL     Hw 1138   1.624   2.494   1.146
  477SOL     Ow 1139   1.687   2.568   1.315
  477SOL     Hw 1140   1.727   2.657   1.315
  477SOL     Hw 1141   1.619   2.576   1.384
  478SOL     Ow 1142   1.656   2.176   0.492
  478SOL     Hw 1143   1.587   2.117   0.455
  478SOL     Hw 1144   1.672   2.131   0.578
  479SOL     Ow 1145   0.188   2.250   0.926
  479SOL     Hw 1146   0.225   2.159   0.933
  479SOL     Hw 1147   0.265   2.301   0.957
  480SOL     Ow 1148   0.033   2.594   1.085
  480SOL     Hw 1149   0.101   2.597   1.016
  480SOL     Hw 1150   0.001   2.504   1.072
  481SOL     Ow 1151   1.809   2.137   0.147
  481SOL     Hw 1152   1.878   2.069   0.157
  481SOL     Hw 1153   1.860   2.217   0.170
  482SOL     Ow 1154   0.021   2.155   0.420
  482SOL     Hw 1155  -0.047   2.169   0.352
  482SOL     Hw 1156   0.080   2.230   0.396
  483SOL     Ow 1157   0.059   2.055   1.300
  483SOL     Hw 1158   0.083   2.004   1.222
  483SOL     Hw 1159  -0.008   2.000   1.343
  484SOL     Ow 1160   0.527   3.411   1.314
  484SOL     Hw 1161   0.516   3.506   1.312
  484SOL     Hw 1162   0.624   3.405   1.313
  485SOL     Ow 1163   0.453   3.493   0.920
  485SOL     Hw 1164   0.437   3.402   0.954
  485SOL     Hw 1165   0.541   3.512   0.957
  486SOL     Ow 1166   0.723   3.463   1.015
  486SOL     Hw 1167   0.728   3.368   0.997
  486SOL     Hw 1168   0.753   3.468   1.108
  487SOL     Ow 1169   1.001   2.073   0.837
  487SOL     Hw 1170   0.954   2.007   0.892
  487SOL     Hw 1171   1.095   2.047   0.850
  488SOL     Ow 1172   1.555   1.920   0.883
  488SOL     Hw 1173   1.615   1.983   0.837
  488SOL     Hw 1174   1.501   1.980   0.935
  489SOL     Ow 1175   1.732   2.049   0.724
  489SOL     Hw 1176   1.799   1.980   0.706
  489SOL     Hw 1177   1.791   2.127   0.741
  490SOL     Ow 1178   0.299   1.949   0.657
  490SOL     Hw 1179   0.216   1.927   0.613
  490SOL     Hw 1180   0.341   1.860   0.660
  491SOL     Ow 1181   0.125   1.946   0.261
  491SOL     Hw 1182   0.210   1.988   0.238
  491SOL     Hw 1183   0.092   2.008   0.328
  492SOL     Ow 1184   0.768   1.933   0.681
  492SOL     Hw 1185   0.846   1.980   0.649
  492SOL     Hw 1186   0.785   1.927   0.777
  493SOL     Ow 1187   1.260   1.993   0.836
  493SOL     Hw 1188   1.322   1.977   0.763
  493SOL     Hw 1189   1.248   1.901   0.870
  494SOL     Ow 1190   1.451   2.007   0.412
  494SOL     Hw 1191   1.414   1.917   0.424
  494SOL     Hw 1192   1.370   2.060   0.426
  495SOL     Ow 1193   0.125   3.476   0.355
  495SOL     Hw 1194   0.124   3.552   0.294
  495SOL     Hw 1195   0.144   3.402   0.294
  496SOL     Ow 1196   0.380   2.053   0.197
  496SOL     Hw 1197   0.420   2.087   0.116
  496SOL     Hw 1198   0.433   2.101   0.263
  497SOL     Ow 1199   0.849   2.185   0.374
  497SOL     Hw 1200   0.897   2.124   0.434
  497SOL     Hw 1201   0.866   2.270   0.421
  498SOL     Ow 1202   3.134   2.861   0.648
  498SOL     Hw 1203   3.076   2.850   0.570
  498SOL     Hw 1204   3.126   2.958   0.656
  499SOL     Ow 1205   2.874   2.800   1.050
  499SOL     Hw 1206   2.865   2.723   0.991
  499SOL     Hw 1207   2.952   2.773   1.102
  500SOL     Ow 1208   2.285   2.716   1.262
  500SOL     Hw 1209   2.203   2.742   1.219
  500SOL     Hw 1210   2.345   2.752   1.194
  501SOL     Ow 1211   2.280   3.225   0.998
  501SOL     Hw 1212   2.255   3.135   0.968
  501SOL     Hw 1213   2.378   3.217   0.990
  502SOL     Ow 1214   1.995   2.579   0.529
  502SOL     Hw 1215   1.931   2.550   0.462
  502SOL     Hw 1216   1.949   2.660   0.560
  503SOL     Ow 1217   2.013   2.782   0.822
  503SOL     Hw 1218   2.081   2.827   0.771
  503SOL     Hw 1219   2.058   2.697   0.844
  504SOL     Ow 1220   2.746   3.030   1.088
  504SOL     Hw 1221   2.789   2.948   1.053
  504SOL     Hw 1222   2.826   3.076   1.118
  505SOL     Ow 1223   2.473   2.296   0.802
  505SOL     Hw 1224   2.418   2.243   0.741
  505SOL     Hw 1225   2.477   2.380   0.753
  506SOL     Ow 1226   2.142   2.550   0.899
  506SOL     Hw 1227   2.156   2.513   0.808
  506SOL     Hw 1228   2.200   2.490   0.949
  507SOL     Ow 1229   2.586   2.691   0.851
  507SOL     Hw 1230   2.547   2.628   0.786
  507SOL     Hw 1231   2.677   2.655   0.859
  508SOL     Ow 1232   2.362   2.213   1.301
  508SOL     Hw 1233   2.278   2.168   1.317
  508SOL     Hw 1234   2.341   2.267   1.223
  509SOL     Ow 1235   3.046   3.120   0.627
  509SOL     Hw 1236   3.038   3.127   0.531
  509SOL     Hw 1237   3.018   3.211   0.652
  510SOL     Ow 1238   2.327   2.356   1.029
  510SOL     Hw 1239   2.383   2.322   0.956
  510SOL     Hw 1240   2.391   2.415   1.074
  511SOL     Ow 1241   2.010   3.145   0.423
  511SOL     Hw 1242   2.007   3.198   0.340
  511SOL     Hw 1243   2.024   3.216   0.489
  512SOL     Ow 1244   2.668   1.903   0.961
  512SOL     Hw 1245   2.641   1.808   0.972
  512SOL     Hw 1246   2.587   1.947   0.997
  513SOL     Ow 1247   2.981   2.870   0.408
  513SOL     Hw 1248   2.892   2.907   0.394
  513SOL     Hw 1249   3.033   2.947   0.379
  514SOL     Ow 1250   2.967   2.680   0.129
  514SOL     Hw 1251   3.015   2.711   0.052
  514SOL     Hw 1252   3.028   2.701   0.201
  515SOL     Ow 1253   2.438   2.891   0.711
  515SOL     Hw 1254   2.419   2.859   0.620
  515SOL     Hw 1255   2.499   2.823   0.743
  516SOL     Ow 1256   2.550   3.187   0.950
  516SOL     Hw 1257   2.570   3.209   0.857
  516SOL     Hw 1258   2.627   3.133   0.979
  517SOL     Ow 1259   2.485   2.816   1.069
  517SOL     Hw 1260   2.516   2.774   0.985
  517SOL     Hw 1261   2.557   2.880   1.081
  518SOL     Ow 1262   2.992   3.390   0.640
  518SOL     Hw 1263   2.973   3.438   0.559
  518SOL     Hw 1264   3.034   3.458   0.697
  519SOL     Ow 1265   2.368   2.808   0.453
  519SOL     Hw 1266   2.321   2.728   0.427
  519SOL     Hw 1267   2.313   2.877   0.410
  520SOL     Ow 1268   1.990   3.289   1.067
  520SOL     Hw 1269   2.064   3.285   1.004
  520SOL     Hw 1270   2.038   3.325   1.145
  521SOL     Ow 1271   2.337   3.437   0.650
  521SOL     Hw 1272   2.250   3.409   0.616
  521SOL     Hw 1273   2.318   3.468   0.741
  522SOL     Ow 1274   2.447   2.018   1.075
  522SOL     Hw 1275   2.362   2.016   1.026
  522SOL     Hw 1276   2.428   2.078   1.148
  523SOL     Ow 1277   2.947   1.963   1.447
  523SOL     Hw 1278   2.904   1.877   1.442
  523SOL     Hw 1279   2.961   1.968   1.542
  524SOL     Ow 1280   2.955   2.207   0.196
  524SOL     Hw 1281   2.921   2.212   0.106
  524SOL     Hw 1282   2.874   2.192   0.249
  525SOL     Ow 1283   2.476   2.534   1.170
  525SOL     Hw 1284   2.517   2.609   1.125
  525SOL     Hw 1285   2.401   2.576   1.214
  526SOL     Ow 1286   2.458   2.535   0.667
  526SOL     Hw 1287   2.361   2.522   0.663
  526SOL     Hw 1288   2.481   2.512   0.575
  527SOL     Ow 1289   2.955   2.591   0.457
  527SOL     Hw 1290   2.954   2.686   0.435
  527SOL     Hw 1291   3.048   2.579   0.480
  528SOL     Ow 1292   2.571   2.233   0.043
  528SOL     Hw 1293   2.532   2.216   0.132
  528SOL     Hw 1294   2.567   2.330   0.038
  529SOL     Ow 1295   1.917   2.242   0.736
  529SOL     Hw 1296   1.973   2.221   0.661
  529SOL     Hw 1297   1.979   2.252   0.811
  530SOL     Ow 1298   1.967   2.347   0.248
  530SOL     Hw 1299   2.045   2.388   0.205
  530SOL     Hw 1300   1.916   2.426   0.274
  531SOL     Ow 1301   3.033   2.717   1.302
  531SOL     Hw 1302   3.080   2.671   1.230
  531SOL     Hw 1303   2.986   2.642   1.344
  532SOL     Ow 1304   2.763   2.310   0.784
  532SOL     Hw 1305   2.669   2.285   0.789
  532SOL     Hw 1306   2.809   2.231   0.820
  533SOL     Ow 1307   2.201   2.452   0.653
  533SOL     Hw 1308   2.126   2.484   0.597
  533SOL     Hw 1309   2.215   2.361   0.620
  534SOL     Ow 1310   2.503   2.446   0.413
  534SOL     Hw 1311   2.488   2.498   0.330
  534SOL     Hw 1312   2.601   2.449   0.423
  535SOL     Ow 1313   2.429   2.552   0.175
  535SOL     Hw 1314   2.470   2.557   0.086
  535SOL     Hw 1315   2.335   2.535   0.154
  536SOL     Ow 1316   2.825   2.563   0.911
  536SOL     Hw 1317   2.828   2.481   0.857
  536SOL     Hw 1318   2.815   2.526   1.001
  537SOL     Ow 1319   2.297   2.190   0.608
  537SOL     Hw 1320   2.333   2.164   0.523
  537SOL     Hw 1321   2.250   2.108   0.634
  538SOL     Ow 1322   2.763   2.498   1.169
  538SOL     Hw 1323   2.672   2.476   1.190
  538SOL     Hw 1324   2.807   2.490   1.256
  539SOL     Ow 1325   2.743   3.021   0.357
  539SOL     Hw 1326   2.670   2.983   0.304
  539SOL     Hw 1327   2.694   3.042   0.440
  540SOL     Ow 1328   2.273   2.953   0.932
  540SOL     Hw 1329   2.312   2.941   0.843
  540SOL     Hw 1330   2.345   2.917   0.985
  541SOL     Ow 1331   2.972   3.168   0.356
  541SOL     Hw 1332   2.884   3.123   0.357
  541SOL     Hw 1333   2.942   3.262   0.352
  542SOL     Ow 1334   2.586   3.330   0.709
  542SOL     Hw 1335   2.503   3.373   0.678
  542SOL     Hw 1336   2.653   3.399   0.692
  543SOL     Ow 1337   2.095   2.769   0.168
  543SOL     Hw 1338   2.000   2.790   0.175
  543SOL     Hw 1339   2.135   2.846   0.214
  544SOL     Ow 1340   2.605   3.082   0.582
  544SOL     Hw 1341   2.542   3.030   0.635
  544SOL     Hw 1342   2.598   3.171   0.620
  545SOL     Ow 1343   2.667   3.449   1.273
  545SOL     Hw 1344   2.663   3.541   1.310
  545SOL     Hw 1345   2.742   3.419   1.324
  546SOL     Ow 1346   3.023   3.088   1.135
  546SOL     Hw 1347   3.027   3.114   1.043
  546SOL     Hw 1348   3.099   3.027   1.139
  547SOL     Ow 1349   2.119   2.405   1.467
  547SOL     Hw 1350   2.031   2.392   1.424
  547SOL     Hw 1351   2.098   2.359   1.551
  548SOL     Ow 1352   2.131   3.374   1.287
  548SOL     Hw 1353   2.224   3.378   1.256
  548SOL     Hw 1354   2.137   3.439   1.356
  549SOL     Ow 1355   2.554   3.312   0.271
  549SOL     Hw 1356   2.561   3.402   0.308
  549SOL     Hw 1357   2.639   3.276   0.298
  550SOL     Ow 1358   2.207   2.979   0.316
  550SOL     Hw 1359   2.138   3.033   0.361
  550SOL     Hw 1360   2.255   3.050   0.268
  551SOL     Ow 1361   2.982   2.245   1.386
  551SOL     Hw 1362   2.955   2.162   1.429
  551SOL     Hw 1363   3.065   2.215   1.346
  552SOL     Ow 1364   2.859   3.410   0.311
  552SOL     Hw 1365   2.903   3.449   0.231
  552SOL     Hw 1366   2.784   3.471   0.324
  553SOL     Ow 1367   2.762   2.403   0.506
  553SOL     Hw 1368   2.832   2.470   0.488
  553SOL     Hw 1369   2.780   2.381   0.600
  554SOL     Ow 1370   2.884   2.501   1.420
  554SOL     Hw 1371   2.927   2.412   1.416
  554SOL     Hw 1372   2.878   2.511   1.517
  555SOL     Ow 1373   2.903   2.075   0.573
  555SOL     Hw 1374   2.991   2.111   0.554
  555SOL     Hw 1375   2.893   2.095   0.668
  556SOL     Ow 1376   2.635   3.560   0.377
  556SOL     Hw 1377   2.610   3.649   0.349
  556SOL     Hw 1378   2.647   3.576   0.473
  557SOL     Ow 1379   2.472   2.196   0.300
  557SOL     Hw 1380   2.560   2.169   0.334
  557SOL     Hw 1381   2.463   2.283   0.344
  558SOL     Ow 1382   2.330   3.184   0.174
  558SOL     Hw 1383   2.384   3.147   0.102
  558SOL     Hw 1384   2.397   3.239   0.219
  559SOL     Ow 1385   2.162   2.517   0.106
  559SOL     Hw 1386   2.130   2.512   0.015
  559SOL     Hw 1387   2.140   2.611   0.129
  560SOL     Ow 1388   2.203   2.002   0.948
  560SOL     Hw 1389   2.198   1.988   0.851
  560SOL     Hw 1390   2.172   1.915   0.980
  561SOL     Ow 1391   2.064   3.370   0.589
  561SOL     Hw 1392   2.035   3.418   0.508
  561SOL     Hw 1393   2.008   3.414   0.656
  562SOL     Ow 1394   2.974   3.485   0.071
  562SOL     Hw 1395   2.937   3.456  -0.015
  562SOL     Hw 1396   3.066   3.503   0.045
  563SOL     Ow 1397   2.509   3.059   6.099
  563SOL     Hw 1398   2.496   2.996   6.026
  563SOL     Hw 1399   2.518   3.000   6.178
  564SOL     Ow 1400   3.005   3.126   0.071
  564SOL     Hw 1401   2.910   3.138   0.065
  564SOL     Hw 1402   3.024   3.161   0.160
  565SOL     Ow 1403   2.539   2.891   0.213
  565SOL     Hw 1404   2.594   2.818   0.175
  565SOL     Hw 1405   2.488   2.845   0.281
  566SOL     Ow 1406   2.695   2.707   0.090
  566SOL     Hw 1407   2.671   2.626   0.043
  566SOL     Hw 1408   2.791   2.693   0.107
  567SOL     Ow 1409   2.689   2.884   1.377
  567SOL     Hw 1410   2.720   2.904   1.287
  567SOL     Hw 1411   2.741   2.804   1.399
  568SOL     Ow 1412   2.054   3.246   0.170
  568SOL     Hw 1413   2.035   3.235   0.075
  568SOL     Hw 1414   2.152   3.240   0.170
  569SOL     Ow 1415   1.936   3.512   0.790
  569SOL     Hw 1416   1.905   3.456   0.862
  569SOL     Hw 1417   1.989   3.578   0.836
  570SOL     Ow 1418   1.983   2.905   1.067
  570SOL     Hw 1419   1.969   2.852   0.986
  570SOL     Hw 1420   2.061   2.954   1.035
  571SOL     Ow 1421   2.080   2.246   0.960
  571SOL     Hw 1422   2.107   2.152   0.961
  571SOL     Hw 1423   2.164   2.287   0.990
  572SOL     Ow 1424   1.882   2.522   1.016
  572SOL     Hw 1425   1.958   2.499   0.960
  572SOL     Hw 1426   1.910   2.605   1.054
  573SOL     Ow 1427   1.933   2.157   0.444
  573SOL     Hw 1428   1.948   2.229   0.380
  573SOL     Hw 1429   1.837   2.163   0.459
  574SOL     Ow 1430   1.929   2.002   1.302
  574SOL     Hw 1431   1.878   2.068   1.251
  574SOL     Hw 1432   1.864   1.973   1.367
  575SOL     Ow 1433   2.393   3.433   1.292
  575SOL     Hw 1434   2.487   3.424   1.266
  575SOL     Hw 1435   2.403   3.504   1.356
  576SOL     Ow 1436   2.323   3.494   0.922
  576SOL     Hw 1437   2.301   3.405   0.957
  576SOL     Hw 1438   2.414   3.505   0.955
  577SOL     Ow 1439   2.593   3.455   1.006
  577SOL     Hw 1440   2.588   3.360   0.985
  577SOL     Hw 1441   2.625   3.452   1.099
  578SOL     Ow 1442   2.866   2.060   0.857
  578SOL     Hw 1443   2.792   2.016   0.904
  578SOL     Hw 1444   2.933   1.988   0.866
  579SOL     Ow 1445   2.173   1.955   0.679
  579SOL     Hw 1446   2.078   1.931   0.665
  579SOL     Hw 1447   2.214   1.866   0.667
  580SOL     Ow 1448   2.008   1.969   0.259
  580SOL     Hw 1449   2.093   2.010   0.231
  580SOL     Hw 1450   1.986   2.025   0.337
  581SOL     Ow 1451   2.651   1.922   0.679
  581SOL     Hw 1452   2.743   1.921   0.648
  581SOL     Hw 1453   2.661   1.917   0.775
  582SOL     Ow 1454   1.977   3.520   0.385
  582SOL     Hw 1455   1.882   3.504   0.369
  582SOL     Hw 1456   2.000   3.579   0.311
  583SOL     Ow 1457   2.247   2.072   0.189
  583SOL     Hw 1458   2.280   1.992   0.144
  583SOL     Hw 1459   2.329   2.114   0.223
  584SOL     Ow 1460   2.736   2.169   0.369
  584SOL     Hw 1461   2.781   2.113   0.436
  584SOL     Hw 1462   2.744   2.256   0.415
  585SOL     Ow 1463   0.952   0.950   4.767
  585SOL     Hw 1464   0.954   0.853   4.749
  585SOL     Hw 1465   1.014   0.949   4.843
  586SOL     Ow 1466   0.321   0.905   4.946
  586SOL     Hw 1467   0.358   0.920   5.035
  586SOL     Hw 1468   0.302   0.810   4.950
  587SOL     Ow 1469   0.528   1.343   4.739
  587SOL     Hw 1470   0.499   1.250   4.720
  587SOL     Hw 1471   0.538   1.339   4.835
  588SOL     Ow 1472   1.848   0.319   4.942
  588SOL     Hw 1473   1.922   0.314   4.877
  588SOL     Hw 1474   1.855   0.413   4.965
  589SOL     Ow 1475   1.261   0.640   4.878
  589SOL     Hw 1476   1.275   0.543   4.876
  589SOL     Hw 1477   1.317   0.672   4.805
  590SOL     Ow 1478   0.230   0.683   4.660
  590SOL     Hw 1479   0.237   0.704   4.565
  590SOL     Hw 1480   0.300   0.616   4.670
  591SOL     Ow 1481   1.877   0.516   5.160
  591SOL     Hw 1482   1.798   0.568   5.137
  591SOL     Hw 1483   1.872   0.515   5.257
  592SOL     Ow 1484   0.450   0.352   4.984
  592SOL     Hw 1485   0.417   0.397   4.905
  592SOL     Hw 1486   0.376   0.368   5.047
  593SOL     Ow 1487   0.762   1.131   5.012
  593SOL     Hw 1488   0.689   1.194   5.028
  593SOL     Hw 1489   0.838   1.179   5.047
  594SOL     Ow 1490   0.423   0.492   4.743
  594SOL     Hw 1491   0.479   0.452   4.674
  594SOL     Hw 1492   0.487   0.548   4.791
  595SOL     Ow 1493   0.567   1.324   5.067
  595SOL     Hw 1494   0.479   1.316   5.108
  595SOL     Hw 1495   0.578   1.421   5.076
  596SOL     Ow 1496   1.500   1.496   4.892
  596SOL     Hw 1497   1.456   1.441   4.827
  596SOL     Hw 1498   1.528   1.573   4.840
  597SOL     Ow 1499   1.586   0.283   5.041
  597SOL     Hw 1500   1.515   0.314   4.983
  597SOL     Hw 1501   1.665   0.293   4.983
  598SOL     Ow 1502   0.837   0.099   4.749
  598SOL     Hw 1503   0.799   0.025   4.700
  598SOL     Hw 1504   0.757   0.131   4.795
  599SOL     Ow 1505   1.630   1.229   5.213
  599SOL     Hw 1506   1.617   1.175   5.132
  599SOL     Hw 1507   1.638   1.319   5.175
  600SOL     Ow 1508   1.800   0.907   5.042
  600SOL     Hw 1509   1.726   0.971   5.029
  600SOL     Hw 1510   1.848   0.918   4.957
  601SOL     Ow 1511   1.401   0.762   5.227
  601SOL     Hw 1512   1.352   0.791   5.149
  601SOL     Hw 1513   1.381   0.834   5.291
  602SOL     Ow 1514   0.675   0.908   4.850
  602SOL     Hw 1515   0.760   0.864   4.865
  602SOL     Hw 1516   0.690   0.991   4.899
  603SOL     Ow 1517   1.162   1.449   4.796
  603SOL     Hw 1518   1.165   1.367   4.851
  603SOL     Hw 1519   1.191   1.515   4.863
  604SOL     Ow 1520   0.720   1.340   5.310
  604SOL     Hw 1521   0.671   1.317   5.229
  604SOL     Hw 1522   0.655   1.398   5.354
  605SOL     Ow 1523   0.398   0.932   5.237
  605SOL     Hw 1524   0.300   0.927   5.232
  605SOL     Hw 1525   0.408   1.010   5.296
  606SOL     Ow 1526   0.519   1.519   5.382
  606SOL     Hw 1527   0.530   1.550   5.290
  606SOL     Hw 1528   0.422   1.518   5.391
  607SOL     Ow 1529   0.152   1.173   5.132
  607SOL     Hw 1530   0.134   1.080   5.156
  607SOL     Hw 1531   0.077   1.193   5.074
  608SOL     Ow 1532   1.881   1.547   5.392
  608SOL     Hw 1533   1.871   1.449   5.384
  608SOL     Hw 1534   1.790   1.570   5.421
  609SOL     Ow 1535   0.965   1.459   5.264
  609SOL     Hw 1536   0.878   1.422   5.289
  609SOL     Hw 1537   0.959   1.549   5.304
  610SOL     Ow 1538   1.572   0.660   5.431
  610SOL     Hw 1539   1.583   0.568   5.400
  610SOL     Hw 1540   1.512   0.695   5.363
  611SOL     Ow 1541   0.338   1.339   5.218
  611SOL     Hw 1542   0.265   1.282   5.184
  611SOL     Hw 1543   0.368   1.283   5.293
  612SOL     Ow 1544   0.582   0.152   4.851
  612SOL     Hw 1545   0.511   0.128   4.791
  612SOL     Hw 1546   0.539   0.222   4.905
  613SOL     Ow 1547   1.039   0.110   5.181
  613SOL     Hw 1548   0.943   0.121   5.164
  613SOL     Hw 1549   1.037   0.063   5.266
  614SOL     Ow 1550   1.337   0.486   5.245
  614SOL     Hw 1551   1.342   0.582   5.232
  614SOL     Hw 1552   1.278   0.477   5.323
  615SOL     Ow 1553   0.565   0.658   4.918
  615SOL     Hw 1554   0.578   0.752   4.894
  615SOL     Hw 1555   0.496   0.663   4.988
  616SOL     Ow 1556   1.045   0.705   5.424
  616SOL     Hw 1557   0.997   0.627   5.458
  616SOL     Hw 1558   1.130   0.695   5.471
  617SOL     Ow 1559   0.362   0.651   5.107
  617SOL     Hw 1560   0.314   0.568   5.130
  617SOL     Hw 1561   0.354   0.701   5.189
  618SOL     Ow 1562   1.079   0.811   4.992
  618SOL     Hw 1563   1.149   0.766   4.938
  618SOL     Hw 1564   1.057   0.737   5.053
  619SOL     Ow 1565   1.266   0.353   4.878
  619SOL     Hw 1566   1.216   0.296   4.816
  619SOL     Hw 1567   1.206   0.355   4.954
  620SOL     Ow 1568   1.623   1.887   5.513
  620SOL     Hw 1569   1.652   1.924   5.429
  620SOL     Hw 1570   1.697   1.911   5.572
  621SOL     Ow 1571   0.401   1.152   5.419
  621SOL     Hw 1572   0.315   1.164   5.465
  621SOL     Hw 1573   0.462   1.139   5.495
  622SOL     Ow 1574   0.926   0.689   4.723
  622SOL     Hw 1575   0.977   0.631   4.666
  622SOL     Hw 1576   0.900   0.627   4.795
  623SOL     Ow 1577   0.825   0.558   4.944
  623SOL     Hw 1578   0.740   0.608   4.948
  623SOL     Hw 1579   0.877   0.592   5.019
  624SOL     Ow 1580   1.590   1.076   4.992
  624SOL     Hw 1581   1.513   1.048   4.938
  624SOL     Hw 1582   1.648   1.118   4.926
  625SOL     Ow 1583   1.026   1.192   5.191
  625SOL     Hw 1584   1.067   1.142   5.263
  625SOL     Hw 1585   1.012   1.279   5.233
  626SOL     Ow 1586   0.433   1.085   4.709
  626SOL     Hw 1587   0.408   1.038   4.629
  626SOL     Hw 1588   0.428   1.014   4.776
  627SOL     Ow 1589   0.125   0.913   5.220
  627SOL     Hw 1590   0.053   0.877   5.163
  627SOL     Hw 1591   0.084   0.907   5.308
  628SOL     Ow 1592   0.839   0.898   5.452
  628SOL     Hw 1593   0.771   0.860   5.392
  628SOL     Hw 1594   0.917   0.845   5.426
  629SOL     Ow 1595   1.247   1.440   5.242
  629SOL     Hw 1596   1.151   1.447   5.227
  629SOL     Hw 1597   1.252   1.465   5.337
  630SOL     Ow 1598   1.859   1.274   5.359
  630SOL     Hw 1599   1.904   1.244   5.277
  630SOL     Hw 1600   1.766   1.263   5.331
  631SOL     Ow 1601   1.378   0.998   4.838
  631SOL     Hw 1602   1.347   1.037   4.756
  631SOL     Hw 1603   1.395   0.907   4.804
  632SOL     Ow 1604   0.859   1.582   5.033
  632SOL     Hw 1605   0.911   1.660   5.004
  632SOL     Hw 1606   0.920   1.538   5.095
  633SOL     Ow 1607   1.170   1.229   4.953
  633SOL     Hw 1608   1.122   1.217   5.037
  633SOL     Hw 1609   1.236   1.159   4.958
  634SOL     Ow 1610   1.427   1.662   5.235
  634SOL     Hw 1611   1.434   1.728   5.163
  634SOL     Hw 1612   1.361   1.599   5.200
  635SOL     Ow 1613   0.254   0.394   5.176
  635SOL     Hw 1614   0.186   0.330   5.147
  635SOL     Hw 1615   0.284   0.347   5.256
  636SOL     Ow 1616   0.256   1.580   5.032
  636SOL     Hw 1617   0.268   1.504   5.091
  636SOL     Hw 1618   0.253   1.653   5.095
  637SOL     Ow 1619   1.124   0.362   5.116
  637SOL     Hw 1620   1.102   0.269   5.135
  637SOL     Hw 1621   1.210   0.375   5.162
  638SOL     Ow 1622   1.001   0.607   5.156
  638SOL     Hw 1623   1.044   0.519   5.145
  638SOL     Hw 1624   1.021   0.629   5.249
  639SOL     Ow 1625   1.592   0.421   5.289
  639SOL     Hw 1626   1.615   0.378   5.205
  639SOL     Hw 1627   1.496   0.432   5.275
  640SOL     Ow 1628   1.433   0.769   4.696
  640SOL     Hw 1629   1.444   0.763   4.599
  640SOL     Hw 1630   1.506   0.710   4.728
  641SOL     Ow 1631   1.605   1.767   4.825
  641SOL     Hw 1632   1.581   1.823   4.748
  641SOL     Hw 1633   1.703   1.774   4.826
  642SOL     Ow 1634   0.328   0.127   4.663
  642SOL     Hw 1635   0.333   0.124   4.566
  642SOL     Hw 1636   0.348   0.034   4.686
  643SOL     Ow 1637   0.216   1.796   5.480
  643SOL     Hw 1638   0.212   1.701   5.458
  643SOL     Hw 1639   0.263   1.790   5.566
  644SOL     Ow 1640   0.592   1.604   5.630
  644SOL     Hw 1641   0.568   1.575   5.540
  644SOL     Hw 1642   0.674   1.553   5.643
  645SOL     Ow 1643   1.249   1.498   5.506
  645SOL     Hw 1644   1.228   1.408   5.541
  645SOL     Hw 1645   1.323   1.524   5.565
  646SOL     Ow 1646   0.150   1.181   5.532
  646SOL     Hw 1647   0.130   1.086   5.521
  646SOL     Hw 1648   0.059   1.218   5.540
  647SOL     Ow 1649   0.802   1.172   5.519
  647SOL     Hw 1650   0.784   1.216   5.433
  647SOL     Hw 1651   0.838   1.085   5.491
  648SOL     Ow 1652   1.363   1.189   5.287
  648SOL     Hw 1653   1.319   1.273   5.264
  648SOL     Hw 1654   1.456   1.211   5.265
  649SOL     Ow 1655   0.141   0.893   5.511
  649SOL     Hw 1656   0.161   0.801   5.489
  649SOL     Hw 1657   0.181   0.899   5.601
  650SOL     Ow 1658   0.646   0.795   5.275
  650SOL     Hw 1659   0.564   0.846   5.257
  650SOL     Hw 1660   0.705   0.826   5.202
  651SOL     Ow 1661   1.144   1.007   5.540
  651SOL     Hw 1662   1.222   0.969   5.497
  651SOL     Hw 1663   1.125   0.941   5.609
  652SOL     Ow 1664   0.671   0.530   5.343
  652SOL     Hw 1665   0.677   0.477   5.260
  652SOL     Hw 1666   0.667   0.622   5.307
  653SOL     Ow 1667   0.692   0.380   5.107
  653SOL     Hw 1668   0.606   0.376   5.061
  653SOL     Hw 1669   0.748   0.424   5.040
  654SOL     Ow 1670   0.830   0.877   5.092
  654SOL     Hw 1671   0.922   0.862   5.064
  654SOL     Hw 1672   0.819   0.972   5.073
  655SOL     Ow 1673   1.276   0.673   5.593
  655SOL     Hw 1674   1.283   0.579   5.618
  655SOL     Hw 1675   1.369   0.695   5.580
  656SOL     Ow 1676   1.401   0.959   5.428
  656SOL     Hw 1677   1.379   1.043   5.382
  656SOL     Hw 1678   1.499   0.963   5.424
  657SOL     Ow 1679   0.521   0.581   5.570
  657SOL     Hw 1680   0.435   0.539   5.550
  657SOL     Hw 1681   0.566   0.573   5.483
  658SOL     Ow 1682   0.768   0.119   5.150
  658SOL     Hw 1683   0.677   0.088   5.156
  658SOL     Hw 1684   0.753   0.215   5.133
  659SOL     Ow 1685   0.902   0.485   5.490
  659SOL     Hw 1686   0.824   0.494   5.431
  659SOL     Hw 1687   0.857   0.454   5.571
  660SOL     Ow 1688   1.176   0.426   5.451
  660SOL     Hw 1689   1.081   0.421   5.473
  660SOL     Hw 1690   1.215   0.351   5.500
  661SOL     Ow 1691   1.327   0.240   5.602
  661SOL     Hw 1692   1.324   0.153   5.645
  661SOL     Hw 1693   1.309   0.301   5.677
  662SOL     Ow 1694   0.293   0.433   5.532
  662SOL     Hw 1695   0.292   0.355   5.472
  662SOL     Hw 1696   0.300   0.387   5.618
  663SOL     Ow 1697   0.882   0.188   5.599
  663SOL     Hw 1698   0.879   0.157   5.508
  663SOL     Hw 1699   0.805   0.248   5.605
  664SOL     Ow 1700   1.881   1.800   4.862
  664SOL     Hw 1701   1.972   1.769   4.845
  664SOL     Hw 1702   1.871   1.774   4.956
  665SOL     Ow 1703   1.815   1.699   5.154
  665SOL     Hw 1704   1.757   1.624   5.131
  665SOL     Hw 1705   1.864   1.658   5.228
  666SOL     Ow 1706   1.660   1.284   5.659
  666SOL     Hw 1707   1.571   1.294   5.698
  666SOL     Hw 1708   1.707   1.361   5.696
  667SOL     Ow 1709   1.832   1.176   4.895
  667SOL     Hw 1710   1.879   1.113   4.837
  667SOL     Hw 1711   1.864   1.263   4.861
  668SOL     Ow 1712   1.629   1.494   5.128
  668SOL     Hw 1713   1.587   1.489   5.039
  668SOL     Hw 1714   1.560   1.541   5.178
  669SOL     Ow 1715   0.074   1.005   4.858
  669SOL     Hw 1716   0.077   0.953   4.777
  669SOL     Hw 1717   0.159   0.977   4.899
  670SOL     Ow 1718   1.676   0.984   5.409
  670SOL     Hw 1719   1.740   0.912   5.391
  670SOL     Hw 1720   1.694   1.047   5.338
  671SOL     Ow 1721   1.826   0.757   5.380
  671SOL     Hw 1722   1.737   0.718   5.394
  671SOL     Hw 1723   1.880   0.680   5.410
  672SOL     Ow 1724   1.620   0.620   4.828
  672SOL     Hw 1725   1.713   0.604   4.805
  672SOL     Hw 1726   1.627   0.627   4.925
  673SOL     Ow 1727   1.658   0.679   5.101
  673SOL     Hw 1728   1.573   0.710   5.137
  673SOL     Hw 1729   1.707   0.762   5.086
  674SOL     Ow 1730   0.079   0.596   5.493
  674SOL     Hw 1731   0.019   0.519   5.489
  674SOL     Hw 1732   0.164   0.547   5.491
  675SOL     Ow 1733   1.898   0.076   5.583
  675SOL     Hw 1734   1.831   0.011   5.556
  675SOL     Hw 1735   1.873   0.153   5.527
  676SOL     Ow 1736   0.177   0.302   4.814
  676SOL     Hw 1737   0.230   0.239   4.762
  676SOL     Hw 1738   0.212   0.386   4.782
  677SOL     Ow 1739   0.063   0.685   4.877
  677SOL     Hw 1740   0.004   0.614   4.851
  677SOL     Hw 1741   0.122   0.687   4.799
  678SOL     Ow 1742   1.790   0.281   5.442
  678SOL     Hw 1743   1.756   0.235   5.363
  678SOL     Hw 1744   1.711   0.333   5.466
  679SOL     Ow 1745   0.079   0.188   5.108
  679SOL     Hw 1746   0.094   0.194   5.012
  679SOL     Hw 1747  -0.006   0.141   5.113
  680SOL     Ow 1748   0.241   1.522   5.456
  680SOL     Hw 1749   0.206   1.445   5.409
  680SOL     Hw 1750   0.227   1.493   5.549
  681SOL     Ow 1751   0.602   1.587   5.123
  681SOL     Hw 1752   0.578   1.679   5.098
  681SOL     Hw 1753   0.697   1.588   5.095
  682SOL     Ow 1754   0.960   1.715   5.374
  682SOL     Hw 1755   1.046   1.759   5.360
  682SOL     Hw 1756   0.973   1.680   5.465
  683SOL     Ow 1757   1.209   1.831   5.355
  683SOL     Hw 1758   1.249   1.869   5.436
  683SOL     Hw 1759   1.281   1.772   5.326
  684SOL     Ow 1760   1.688   0.121   5.240
  684SOL     Hw 1761   1.638   0.165   5.168
  684SOL     Hw 1762   1.780   0.132   5.207
  685SOL     Ow 1763   0.289   1.889   5.132
  685SOL     Hw 1764   0.217   1.941   5.090
  685SOL     Hw 1765   0.295   1.934   5.218
  686SOL     Ow 1766   0.548   1.844   5.049
  686SOL     Hw 1767   0.551   1.897   4.966
  686SOL     Hw 1768   0.456   1.862   5.079
  687SOL     Ow 1769   0.997   1.812   4.956
  687SOL     Hw 1770   0.934   1.851   4.891
  687SOL     Hw 1771   1.010   1.887   5.017
  688SOL     Ow 1772   1.227   1.665   4.966
  688SOL     Hw 1773   1.146   1.720   4.965
  688SOL     Hw 1774   1.296   1.732   4.981
  689SOL     Ow 1775   1.467   1.854   5.040
  689SOL     Hw 1776   1.488   1.949   5.027
  689SOL     Hw 1777   1.516   1.815   4.964
  690SOL     Ow 1778   0.306   1.676   4.780
  690SOL     Hw 1779   0.275   1.629   4.860
  690SOL     Hw 1780   0.348   1.751   4.821
  691SOL     Ow 1781   1.094   0.201   4.718
  691SOL     Hw 1782   1.088   0.226   4.626
  691SOL     Hw 1783   1.003   0.169   4.736
  692SOL     Ow 1784   1.558  -0.026   4.670
  692SOL     Hw 1785   1.608  -0.028   4.588
  692SOL     Hw 1786   1.514   0.059   4.660
  693SOL     Ow 1787   0.298   0.209   5.377
  693SOL     Hw 1788   0.246   0.141   5.333
  693SOL     Hw 1789   0.355   0.155   5.437
  694SOL     Ow 1790   0.464   0.085   5.559
  694SOL     Hw 1791   0.559   0.095   5.548
  694SOL     Hw 1792   0.460  -0.009   5.582
  695SOL     Ow 1793   1.620   1.621   5.445
  695SOL     Hw 1794   1.546   1.625   5.381
  695SOL     Hw 1795   1.620   1.712   5.480
  696SOL     Ow 1796   2.874   0.954   4.827
  696SOL     Hw 1797   2.861   0.862   4.794
  696SOL     Hw 1798   2.963   0.945   4.865
  697SOL     Ow 1799   2.212   0.883   4.923
  697SOL     Hw 1800   2.214   0.806   4.983
  697SOL     Hw 1801   2.307   0.900   4.912
  698SOL     Ow 1802   2.301   1.350   4.808
  698SOL     Hw 1803   2.294   1.267   4.758
  698SOL     Hw 1804   2.337   1.316   4.890
  699SOL     Ow 1805   3.069   1.660   4.668
  699SOL     Hw 1806   3.054   1.746   4.625
  699SOL     Hw 1807   3.040   1.684   4.757
  700SOL     Ow 1808   2.808   1.225   4.795
  700SOL     Hw 1809   2.817   1.128   4.780
  700SOL     Hw 1810   2.890   1.239   4.847
  701SOL     Ow 1811   2.080   0.686   4.636
  701SOL     Hw 1812   2.156   0.627   4.641
  701SOL     Hw 1813   2.068   0.694   4.539
  702SOL     Ow 1814   2.338   0.318   4.966
  702SOL     Hw 1815   2.306   0.361   4.884
  702SOL     Hw 1816   2.262   0.338   5.024
  703SOL     Ow 1817   2.611   1.124   4.975
  703SOL     Hw 1818   2.552   1.195   5.008
  703SOL     Hw 1819   2.671   1.174   4.916
  704SOL     Ow 1820   2.303   0.490   4.736
  704SOL     Hw 1821   2.353   0.479   4.654
  704SOL     Hw 1822   2.363   0.544   4.791
  705SOL     Ow 1823   2.451   1.323   5.073
  705SOL     Hw 1824   2.361   1.314   5.110
  705SOL     Hw 1825   2.461   1.421   5.074
  706SOL     Ow 1826   2.483   0.905   4.870
  706SOL     Hw 1827   2.516   0.918   4.780
  706SOL     Hw 1828   2.529   0.979   4.916
  707SOL     Ow 1829   2.600   1.327   5.319
  707SOL     Hw 1830   2.557   1.302   5.235
  707SOL     Hw 1831   2.531   1.387   5.355
  708SOL     Ow 1832   2.274   0.914   5.280
  708SOL     Hw 1833   2.180   0.911   5.250
  708SOL     Hw 1834   2.278   1.005   5.315
  709SOL     Ow 1835   2.403   1.507   5.380
  709SOL     Hw 1836   2.407   1.547   5.291
  709SOL     Hw 1837   2.306   1.505   5.399
  710SOL     Ow 1838   1.977   1.169   5.137
  710SOL     Hw 1839   1.991   1.074   5.152
  710SOL     Hw 1840   1.926   1.170   5.053
  711SOL     Ow 1841   1.967   1.406   4.831
  711SOL     Hw 1842   2.021   1.399   4.751
  711SOL     Hw 1843   2.022   1.461   4.888
  712SOL     Ow 1844   2.834   1.455   5.257
  712SOL     Hw 1845   2.750   1.414   5.288
  712SOL     Hw 1846   2.837   1.536   5.311
  713SOL     Ow 1847   2.204   1.317   5.181
  713SOL     Hw 1848   2.122   1.266   5.160
  713SOL     Hw 1849   2.229   1.276   5.266
  714SOL     Ow 1850   2.432   0.080   4.824
  714SOL     Hw 1851   2.357   0.086   4.761
  714SOL     Hw 1852   2.411   0.155   4.882
  715SOL     Ow 1853   2.921   0.094   5.158
  715SOL     Hw 1854   2.823   0.098   5.148
  715SOL     Hw 1855   2.926   0.030   5.232
  716SOL     Ow 1856   2.457   0.639   4.921
  716SOL     Hw 1857   2.467   0.735   4.903
  716SOL     Hw 1858   2.384   0.641   4.987
  717SOL     Ow 1859   2.942   0.713   5.410
  717SOL     Hw 1860   3.032   0.685   5.435
  717SOL     Hw 1861   2.888   0.640   5.449
  718SOL     Ow 1862   2.248   0.665   5.094
  718SOL     Hw 1863   2.208   0.576   5.110
  718SOL     Hw 1864   2.232   0.708   5.179
  719SOL     Ow 1865   3.037   0.823   5.062
  719SOL     Hw 1866   3.092   0.781   4.992
  719SOL     Hw 1867   2.976   0.750   5.083
  720SOL     Ow 1868   2.273   1.163   5.410
  720SOL     Hw 1869   2.189   1.171   5.459
  720SOL     Hw 1870   2.336   1.155   5.485
  721SOL     Ow 1871   2.849   0.689   4.746
  721SOL     Hw 1872   2.809   0.672   4.660
  721SOL     Hw 1873   2.803   0.625   4.804
  722SOL     Ow 1874   2.712   0.541   4.936
  722SOL     Hw 1875   2.625   0.586   4.935
  722SOL     Hw 1876   2.758   0.584   5.012
  723SOL     Ow 1877   2.938   1.201   5.206
  723SOL     Hw 1878   2.922   1.166   5.294
  723SOL     Hw 1879   2.909   1.294   5.215
  724SOL     Ow 1880   2.293   1.099   4.691
  724SOL     Hw 1881   2.280   1.087   4.596
  724SOL     Hw 1882   2.263   1.015   4.725
  725SOL     Ow 1883   2.004   0.899   5.220
  725SOL     Hw 1884   1.935   0.885   5.151
  725SOL     Hw 1885   1.963   0.849   5.293
  726SOL     Ow 1886   2.728   0.901   5.446
  726SOL     Hw 1887   2.661   0.864   5.384
  726SOL     Hw 1888   2.808   0.853   5.416
  727SOL     Ow 1889   2.727   1.579   5.025
  727SOL     Hw 1890   2.786   1.645   4.985
  727SOL     Hw 1891   2.786   1.531   5.086
  728SOL     Ow 1892   3.040   1.216   4.950
  728SOL     Hw 1893   3.085   1.134   4.921
  728SOL     Hw 1894   3.000   1.192   5.037
  729SOL     Ow 1895   2.135   0.418   5.145
  729SOL     Hw 1896   2.042   0.447   5.139
  729SOL     Hw 1897   2.127   0.343   5.207
  730SOL     Ow 1898   2.133   1.554   5.012
  730SOL     Hw 1899   2.163   1.468   5.048
  730SOL     Hw 1900   2.140   1.609   5.090
  731SOL     Ow 1901   2.956   0.368   5.172
  731SOL     Hw 1902   2.932   0.275   5.160
  731SOL     Hw 1903   3.047   0.360   5.203
  732SOL     Ow 1904   2.869   0.625   5.150
  732SOL     Hw 1905   2.895   0.530   5.161
  732SOL     Hw 1906   2.884   0.660   5.240
  733SOL     Ow 1907   2.217   0.109   4.647
  733SOL     Hw 1908   2.151   0.040   4.631
  733SOL     Hw 1909   2.233   0.134   4.554
  734SOL     Ow 1910   2.055   1.813   5.495
  734SOL     Hw 1911   2.022   1.727   5.463
  734SOL     Hw 1912   2.117   1.783   5.565
  735SOL     Ow 1913   2.472   1.611   5.624
  735SOL     Hw 1914   2.452   1.575   5.536
  735SOL     Hw 1915   2.554   1.563   5.646
  736SOL     Ow 1916   2.031   1.160   5.544
  736SOL     Hw 1917   1.958   1.186   5.484
  736SOL     Hw 1918   2.032   1.062   5.534
  737SOL     Ow 1919   2.687   1.168   5.527
  737SOL     Hw 1920   2.667   1.213   5.442
  737SOL     Hw 1921   2.716   1.079   5.495
  738SOL     Ow 1922   2.103   0.894   5.531
  738SOL     Hw 1923   2.186   0.866   5.491
  738SOL     Hw 1924   2.117   0.876   5.626
  739SOL     Ow 1925   2.530   0.797   5.277
  739SOL     Hw 1926   2.443   0.842   5.271
  739SOL     Hw 1927   2.583   0.843   5.207
  740SOL     Ow 1928   3.004   0.988   5.577
  740SOL     Hw 1929   3.076   0.940   5.533
  740SOL     Hw 1930   2.969   0.919   5.635
  741SOL     Ow 1931   2.551   0.529   5.334
  741SOL     Hw 1932   2.549   0.473   5.254
  741SOL     Hw 1933   2.544   0.619   5.297
  742SOL     Ow 1934   2.570   0.364   5.102
  742SOL     Hw 1935   2.625   0.410   5.036
  742SOL     Hw 1936   2.486   0.352   5.052
  743SOL     Ow 1937   2.720   0.919   5.122
  743SOL     Hw 1938   2.691   0.997   5.070
  743SOL     Hw 1939   2.809   0.906   5.086
  744SOL     Ow 1940   2.406   0.578   5.569
  744SOL     Hw 1941   2.319   0.537   5.551
  744SOL     Hw 1942   2.448   0.572   5.480
  745SOL     Ow 1943   2.648   0.101   5.143
  745SOL     Hw 1944   2.560   0.064   5.161
  745SOL     Hw 1945   2.625   0.196   5.135
  746SOL     Ow 1946   2.782   0.504   5.482
  746SOL     Hw 1947   2.706   0.508   5.420
  746SOL     Hw 1948   2.737   0.467   5.560
  747SOL     Ow 1949   3.034   0.378   5.494
  747SOL     Hw 1950   2.941   0.398   5.469
  747SOL     Hw 1951   3.021   0.349   5.586
  748SOL     Ow 1952   2.181   0.425   5.526
  748SOL     Hw 1953   2.183   0.351   5.462
  748SOL     Hw 1954   2.185   0.375   5.610
  749SOL     Ow 1955   2.781   0.197   5.587
  749SOL     Hw 1956   2.747   0.125   5.532
  749SOL     Hw 1957   2.703   0.256   5.595
  750SOL     Ow 1958   1.963   0.933   4.821
  750SOL     Hw 1959   1.969   0.896   4.732
  750SOL     Hw 1960   2.056   0.920   4.853
  751SOL     Ow 1961   1.935   0.516   5.445
  751SOL     Hw 1962   1.886   0.432   5.457
  751SOL     Hw 1963   2.026   0.487   5.468
  752SOL     Ow 1964   2.082   0.315   4.796
  752SOL     Hw 1965   2.126   0.247   4.742
  752SOL     Hw 1966   2.121   0.396   4.761
  753SOL     Ow 1967   1.896   0.626   4.831
  753SOL     Hw 1968   1.947   0.632   4.748
  753SOL     Hw 1969   1.929   0.703   4.878
  754SOL     Ow 1970   1.941   0.160   5.148
  754SOL     Hw 1971   1.951   0.072   5.106
  754SOL     Hw 1972   1.914   0.216   5.071
  755SOL     Ow 1973   2.141   1.503   5.475
  755SOL     Hw 1974   2.052   1.511   5.436
  755SOL     Hw 1975   2.120   1.468   5.563
  756SOL     Ow 1976   2.473   1.592   5.124
  756SOL     Hw 1977   2.566   1.589   5.091
  756SOL     Hw 1978   2.450   1.683   5.095
  757SOL     Ow 1979   2.886   1.708   5.391
  757SOL     Hw 1980   2.978   1.713   5.361
  757SOL     Hw 1981   2.898   1.659   5.476
  758SOL     Ow 1982   2.186   1.905   5.137
  758SOL     Hw 1983   2.097   1.936   5.110
  758SOL     Hw 1984   2.195   1.953   5.221
  759SOL     Ow 1985   2.431   1.849   5.042
  759SOL     Hw 1986   2.427   1.895   4.956
  759SOL     Hw 1987   2.339   1.866   5.075
  760SOL     Ow 1988   2.873   1.783   4.901
  760SOL     Hw 1989   2.820   1.837   4.838
  760SOL     Hw 1990   2.905   1.852   4.960
  761SOL     Ow 1991   2.147   1.718   4.789
  761SOL     Hw 1992   2.182   1.652   4.728
  761SOL     Hw 1993   2.154   1.668   4.873
  762SOL     Ow 1994   2.167   0.206   5.367
  762SOL     Hw 1995   2.097   0.149   5.329
  762SOL     Hw 1996   2.215   0.144   5.426
  763SOL     Ow 1997   2.331   0.068   5.565
  763SOL     Hw 1998   2.426   0.047   5.562
  763SOL     Hw 1999   2.293  -0.021   5.570
  764SOL     Ow 2000   1.029   2.795   4.719
  764SOL     Hw 2001   1.106   2.746   4.685
  764SOL     Hw 2002   1.024   2.756   4.810
  765SOL     Ow 2003   0.289   2.777   4.920
  765SOL     Hw 2004   0.296   2.687   4.956
  765SOL     Hw 2005   0.311   2.828   4.999
  766SOL     Ow 2006   0.460   3.209   4.791
  766SOL     Hw 2007   0.424   3.124   4.760
  766SOL     Hw 2008   0.555   3.195   4.778
  767SOL     Ow 2009   0.981   3.059   4.766
  767SOL     Hw 2010   1.008   2.965   4.760
  767SOL     Hw 2011   1.033   3.084   4.846
  768SOL     Ow 2012   1.832   2.207   4.934
  768SOL     Hw 2013   1.905   2.219   4.869
  768SOL     Hw 2014   1.850   2.280   4.997
  769SOL     Ow 2015   1.202   2.536   4.733
  769SOL     Hw 2016   1.288   2.581   4.714
  769SOL     Hw 2017   1.232   2.458   4.782
  770SOL     Ow 2018   1.874   2.387   5.143
  770SOL     Hw 2019   1.787   2.433   5.139
  770SOL     Hw 2020   1.894   2.398   5.238
  771SOL     Ow 2021   0.470   2.217   4.985
  771SOL     Hw 2022   0.452   2.279   4.911
  771SOL     Hw 2023   0.394   2.234   5.043
  772SOL     Ow 2024   0.736   3.009   4.990
  772SOL     Hw 2025   0.769   3.077   4.931
  772SOL     Hw 2026   0.670   3.062   5.041
  773SOL     Ow 2027   0.420   2.366   4.764
  773SOL     Hw 2028   0.421   2.376   4.668
  773SOL     Hw 2029   0.481   2.437   4.792
  774SOL     Ow 2030   0.574   3.190   5.110
  774SOL     Hw 2031   0.480   3.181   5.135
  774SOL     Hw 2032   0.571   3.282   5.077
  775SOL     Ow 2033   1.501   3.385   4.850
  775SOL     Hw 2034   1.465   3.341   4.774
  775SOL     Hw 2035   1.534   3.468   4.808
  776SOL     Ow 2036   1.583   2.118   5.017
  776SOL     Hw 2037   1.530   2.178   4.964
  776SOL     Hw 2038   1.673   2.138   4.982
  777SOL     Ow 2039   0.816   1.918   4.779
  777SOL     Hw 2040   0.836   1.955   4.692
  777SOL     Hw 2041   0.724   1.949   4.792
  778SOL     Ow 2042   1.615   3.122   5.200
  778SOL     Hw 2043   1.623   3.060   5.124
  778SOL     Hw 2044   1.630   3.209   5.156
  779SOL     Ow 2045   1.807   2.760   5.066
  779SOL     Hw 2046   1.838   2.736   4.977
  779SOL     Hw 2047   1.745   2.834   5.046
  780SOL     Ow 2048   1.408   2.650   5.235
  780SOL     Hw 2049   1.367   2.699   5.163
  780SOL     Hw 2050   1.403   2.716   5.308
  781SOL     Ow 2051   0.737   3.176   4.721
  781SOL     Hw 2052   0.715   3.171   4.626
  781SOL     Hw 2053   0.829   3.143   4.727
  782SOL     Ow 2054   0.674   2.825   4.790
  782SOL     Hw 2055   0.586   2.859   4.762
  782SOL     Hw 2056   0.690   2.876   4.872
  783SOL     Ow 2057   1.187   3.282   4.793
  783SOL     Hw 2058   1.192   3.212   4.861
  783SOL     Hw 2059   1.195   3.362   4.847
  784SOL     Ow 2060   0.739   3.223   5.325
  784SOL     Hw 2061   0.690   3.195   5.245
  784SOL     Hw 2062   0.673   3.284   5.363
  785SOL     Ow 2063   0.400   2.816   5.246
  785SOL     Hw 2064   0.303   2.812   5.238
  785SOL     Hw 2065   0.410   2.895   5.303
  786SOL     Ow 2066   0.536   3.401   5.374
  786SOL     Hw 2067   0.517   3.415   5.280
  786SOL     Hw 2068   0.445   3.399   5.411
  787SOL     Ow 2069   0.137   3.055   5.137
  787SOL     Hw 2070   0.130   2.962   5.167
  787SOL     Hw 2071   0.044   3.082   5.134
  788SOL     Ow 2072   0.056   3.366   4.814
  788SOL     Hw 2073   0.119   3.369   4.742
  788SOL     Hw 2074   0.114   3.374   4.892
  789SOL     Ow 2075   1.888   3.382   5.393
  789SOL     Hw 2076   1.861   3.290   5.410
  789SOL     Hw 2077   1.807   3.431   5.420
  790SOL     Ow 2078   0.961   3.363   5.250
  790SOL     Hw 2079   0.880   3.324   5.287
  790SOL     Hw 2080   0.976   3.439   5.311
  791SOL     Ow 2081   1.580   2.523   5.438
  791SOL     Hw 2082   1.583   2.426   5.433
  791SOL     Hw 2083   1.512   2.544   5.373
  792SOL     Ow 2084   0.327   3.218   5.231
  792SOL     Hw 2085   0.258   3.160   5.192
  792SOL     Hw 2086   0.361   3.160   5.303
  793SOL     Ow 2087   0.552   2.003   4.826
  793SOL     Hw 2088   0.481   2.001   4.759
  793SOL     Hw 2089   0.533   2.087   4.873
  794SOL     Ow 2090   1.054   1.987   5.170
  794SOL     Hw 2091   0.961   1.974   5.195
  794SOL     Hw 2092   1.102   1.937   5.238
  795SOL     Ow 2093   1.344   2.378   5.230
  795SOL     Hw 2094   1.276   2.360   5.299
  795SOL     Hw 2095   1.347   2.475   5.228
  796SOL     Ow 2096   0.589   2.555   4.897
  796SOL     Hw 2097   0.610   2.647   4.872
  796SOL     Hw 2098   0.517   2.566   4.963
  797SOL     Ow 2099   1.046   2.586   5.425
  797SOL     Hw 2100   0.993   2.510   5.458
  797SOL     Hw 2101   1.127   2.575   5.478
  798SOL     Ow 2102   0.372   2.550   5.078
  798SOL     Hw 2103   0.329   2.465   5.100
  798SOL     Hw 2104   0.378   2.593   5.164
  799SOL     Ow 2105   0.020   2.373   4.667
  799SOL     Hw 2106   0.019   2.370   4.570
  799SOL     Hw 2107   0.061   2.289   4.693
  800SOL     Ow 2108   1.070   2.664   4.946
  800SOL     Hw 2109   1.122   2.606   4.888
  800SOL     Hw 2110   1.063   2.609   5.027
  801SOL     Ow 2111   1.190   2.271   4.790
  801SOL     Hw 2112   1.167   2.262   4.886
  801SOL     Hw 2113   1.234   2.186   4.776
  802SOL     Ow 2114   0.402   3.033   5.423
  802SOL     Hw 2115   0.315   3.046   5.468
  802SOL     Hw 2116   0.462   3.024   5.500
  803SOL     Ow 2117   0.813   2.420   4.997
  803SOL     Hw 2118   0.744   2.476   4.957
  803SOL     Hw 2119   0.872   2.483   5.040
  804SOL     Ow 2120   1.629   2.951   4.985
  804SOL     Hw 2121   1.547   2.919   4.941
  804SOL     Hw 2122   1.681   2.985   4.911
  805SOL     Ow 2123   1.027   3.065   5.236
  805SOL     Hw 2124   0.986   3.147   5.266
  805SOL     Hw 2125   1.063   3.030   5.319
  806SOL     Ow 2126   0.430   2.923   4.706
  806SOL     Hw 2127   0.400   2.924   4.614
  806SOL     Hw 2128   0.362   2.868   4.750
  807SOL     Ow 2129   0.126   2.799   5.226
  807SOL     Hw 2130   0.059   2.760   5.165
  807SOL     Hw 2131   0.085   2.785   5.312
  808SOL     Ow 2132   0.833   2.766   5.448
  808SOL     Hw 2133   0.768   2.727   5.387
  808SOL     Hw 2134   0.914   2.716   5.425
  809SOL     Ow 2135   1.236   3.323   5.235
  809SOL     Hw 2136   1.140   3.335   5.220
  809SOL     Hw 2137   1.241   3.344   5.331
  810SOL     Ow 2138   1.834   3.096   5.360
  810SOL     Hw 2139   1.886   3.091   5.277
  810SOL     Hw 2140   1.746   3.119   5.323
  811SOL     Ow 2141   1.411   2.857   4.852
  811SOL     Hw 2142   1.343   2.905   4.802
  811SOL     Hw 2143   1.426   2.780   4.794
  812SOL     Ow 2144   0.835   3.473   5.025
  812SOL     Hw 2145   0.890   3.433   5.094
  812SOL     Hw 2146   0.848   3.568   5.043
  813SOL     Ow 2147   1.155   3.081   4.989
  813SOL     Hw 2148   1.238   3.052   5.029
  813SOL     Hw 2149   1.099   3.078   5.071
  814SOL     Ow 2150   1.458   3.491   5.233
  814SOL     Hw 2151   1.377   3.438   5.223
  814SOL     Hw 2152   1.427   3.580   5.213
  815SOL     Ow 2153   0.259   2.277   5.155
  815SOL     Hw 2154   0.178   2.242   5.113
  815SOL     Hw 2155   0.266   2.216   5.230
  816SOL     Ow 2156   0.216   3.399   5.048
  816SOL     Hw 2157   0.262   3.343   5.113
  816SOL     Hw 2158   0.234   3.486   5.083
  817SOL     Ow 2159   1.167   2.225   5.064
  817SOL     Hw 2160   1.127   2.145   5.107
  817SOL     Hw 2161   1.231   2.253   5.131
  818SOL     Ow 2162   1.043   2.505   5.159
  818SOL     Hw 2163   1.066   2.411   5.165
  818SOL     Hw 2164   1.046   2.533   5.252
  819SOL     Ow 2165   1.586   2.263   5.281
  819SOL     Hw 2166   1.596   2.215   5.198
  819SOL     Hw 2167   1.496   2.300   5.268
  820SOL     Ow 2168   1.435   2.647   4.668
  820SOL     Hw 2169   1.459   2.649   4.573
  820SOL     Hw 2170   1.511   2.598   4.706
  821SOL     Ow 2171   0.328   1.970   4.666
  821SOL     Hw 2172   0.332   1.993   4.571
  821SOL     Hw 2173   0.292   1.880   4.661
  822SOL     Ow 2174   0.655   3.490   5.607
  822SOL     Hw 2175   0.622   3.454   5.523
  822SOL     Hw 2176   0.718   3.420   5.633
  823SOL     Ow 2177   1.255   3.379   5.499
  823SOL     Hw 2178   1.235   3.290   5.536
  823SOL     Hw 2179   1.334   3.405   5.553
  824SOL     Ow 2180   0.150   3.058   5.528
  824SOL     Hw 2181   0.128   2.964   5.517
  824SOL     Hw 2182   0.060   3.096   5.540
  825SOL     Ow 2183   0.804   3.033   5.519
  825SOL     Hw 2184   0.791   3.083   5.435
  825SOL     Hw 2185   0.829   2.944   5.486
  826SOL     Ow 2186   1.351   3.066   5.250
  826SOL     Hw 2187   1.305   3.153   5.246
  826SOL     Hw 2188   1.444   3.094   5.239
  827SOL     Ow 2189   0.143   2.768   5.510
  827SOL     Hw 2190   0.180   2.682   5.485
  827SOL     Hw 2191   0.181   2.779   5.600
  828SOL     Ow 2192   0.632   2.664   5.270
  828SOL     Hw 2193   0.554   2.722   5.265
  828SOL     Hw 2194   0.693   2.706   5.206
  829SOL     Ow 2195   1.141   2.890   5.540
  829SOL     Hw 2196   1.222   2.852   5.504
  829SOL     Hw 2197   1.118   2.827   5.611
  830SOL     Ow 2198   0.663   2.401   5.346
  830SOL     Hw 2199   0.671   2.338   5.271
  830SOL     Hw 2200   0.657   2.488   5.301
  831SOL     Ow 2201   0.695   2.219   5.135
  831SOL     Hw 2202   0.613   2.215   5.081
  831SOL     Hw 2203   0.749   2.280   5.080
  832SOL     Ow 2204   0.820   2.778   5.114
  832SOL     Hw 2205   0.799   2.865   5.074
  832SOL     Hw 2206   0.917   2.779   5.112
  833SOL     Ow 2207   1.265   2.540   5.603
  833SOL     Hw 2208   1.276   2.452   5.645
  833SOL     Hw 2209   1.354   2.576   5.613
  834SOL     Ow 2210   1.408   2.855   5.421
  834SOL     Hw 2211   1.381   2.933   5.368
  834SOL     Hw 2212   1.506   2.866   5.418
  835SOL     Ow 2213   0.501   2.452   5.563
  835SOL     Hw 2214   0.422   2.398   5.542
  835SOL     Hw 2215   0.552   2.442   5.479
  836SOL     Ow 2216   0.773   1.963   5.178
  836SOL     Hw 2217   0.703   1.917   5.128
  836SOL     Hw 2218   0.748   2.057   5.164
  837SOL     Ow 2219   0.897   2.370   5.493
  837SOL     Hw 2220   0.817   2.372   5.436
  837SOL     Hw 2221   0.855   2.342   5.577
  838SOL     Ow 2222   1.153   2.303   5.401
  838SOL     Hw 2223   1.065   2.306   5.443
  838SOL     Hw 2224   1.207   2.254   5.466
  839SOL     Ow 2225   1.347   2.186   5.570
  839SOL     Hw 2226   1.342   2.088   5.577
  839SOL     Hw 2227   1.321   2.216   5.660
  840SOL     Ow 2228   0.289   2.275   5.519
  840SOL     Hw 2229   0.283   2.197   5.460
  840SOL     Hw 2230   0.302   2.229   5.604
  841SOL     Ow 2231   0.751   1.891   5.438
  841SOL     Hw 2232   0.810   1.814   5.429
  841SOL     Hw 2233   0.751   1.922   5.345
  842SOL     Ow 2234   0.837   2.052   5.647
  842SOL     Hw 2235   0.806   1.999   5.570
  842SOL     Hw 2236   0.779   2.130   5.641
  843SOL     Ow 2237   1.914   3.477   5.130
  843SOL     Hw 2238   1.831   3.436   5.097
  843SOL     Hw 2239   1.914   3.447   5.224
  844SOL     Ow 2240   1.647   3.177   5.657
  844SOL     Hw 2241   1.555   3.190   5.690
  844SOL     Hw 2242   1.692   3.256   5.692
  845SOL     Ow 2243   1.853   3.080   4.857
  845SOL     Hw 2244   1.789   3.152   4.847
  845SOL     Hw 2245   1.933   3.136   4.844
  846SOL     Ow 2246   1.651   3.368   5.079
  846SOL     Hw 2247   1.600   3.377   4.995
  846SOL     Hw 2248   1.591   3.419   5.138
  847SOL     Ow 2249   0.070   2.864   4.764
  847SOL     Hw 2250   0.092   2.957   4.762
  847SOL     Hw 2251   0.141   2.829   4.821
  848SOL     Ow 2252   1.685   2.865   5.418
  848SOL     Hw 2253   1.741   2.788   5.396
  848SOL     Hw 2254   1.742   2.939   5.390
  849SOL     Ow 2255   1.824   2.632   5.379
  849SOL     Hw 2256   1.737   2.591   5.401
  849SOL     Hw 2257   1.882   2.556   5.398
  850SOL     Ow 2258   1.624   2.530   4.827
  850SOL     Hw 2259   1.719   2.542   4.808
  850SOL     Hw 2260   1.626   2.522   4.924
  851SOL     Ow 2261   1.645   2.544   5.108
  851SOL     Hw 2262   1.564   2.573   5.154
  851SOL     Hw 2263   1.701   2.625   5.114
  852SOL     Ow 2264   0.086   2.458   5.491
  852SOL     Hw 2265   0.022   2.385   5.476
  852SOL     Hw 2266   0.168   2.404   5.491
  853SOL     Ow 2267   1.865   1.985   5.604
  853SOL     Hw 2268   1.865   2.053   5.534
  853SOL     Hw 2269   1.936   1.925   5.574
  854SOL     Ow 2270   0.199   2.177   4.808
  854SOL     Hw 2271   0.243   2.104   4.759
  854SOL     Hw 2272   0.263   2.249   4.797
  855SOL     Ow 2273   0.035   2.581   4.850
  855SOL     Hw 2274   0.033   2.501   4.793
  855SOL     Hw 2275   0.055   2.648   4.783
  856SOL     Ow 2276   1.808   2.155   5.398
  856SOL     Hw 2277   1.723   2.203   5.391
  856SOL     Hw 2278   1.792   2.083   5.334
  857SOL     Ow 2279   0.090   2.055   5.035
  857SOL     Hw 2280  -0.002   2.030   5.021
  857SOL     Hw 2281   0.114   2.096   4.949
  858SOL     Ow 2282   0.284   3.403   5.474
  858SOL     Hw 2283   0.228   3.347   5.419
  858SOL     Hw 2284   0.251   3.379   5.564
  859SOL     Ow 2285   0.559   3.461   5.070
  859SOL     Hw 2286   0.512   3.492   4.990
  859SOL     Hw 2287   0.652   3.474   5.044
  860SOL     Ow 2288   1.037   3.572   5.415
  860SOL     Hw 2289   1.132   3.558   5.428
  860SOL     Hw 2290   1.007   3.558   5.507
  861SOL     Ow 2291   1.717   1.944   5.239
  861SOL     Hw 2292   1.744   1.853   5.212
  861SOL     Hw 2293   1.639   1.957   5.183
  862SOL     Ow 2294   0.431   3.493   4.773
  862SOL     Hw 2295   0.528   3.495   4.761
  862SOL     Hw 2296   0.415   3.397   4.774
  863SOL     Ow 2297   0.703   3.448   4.781
  863SOL     Hw 2298   0.714   3.354   4.759
  863SOL     Hw 2299   0.760   3.458   4.860
  864SOL     Ow 2300   1.524   1.925   4.616
  864SOL     Hw 2301   1.476   1.863   4.560
  864SOL     Hw 2302   1.544   1.991   4.548
  865SOL     Ow 2303   0.297   2.035   5.374
  865SOL     Hw 2304   0.247   1.958   5.410
  865SOL     Hw 2305   0.383   2.017   5.418
  866SOL     Ow 2306   0.502   1.957   5.534
  866SOL     Hw 2307   0.590   1.931   5.499
  866SOL     Hw 2308   0.477   1.876   5.584
  867SOL     Ow 2309   1.356   1.912   5.576
  867SOL     Hw 2310   1.452   1.897   5.559
  867SOL     Hw 2311   1.344   1.865   5.661
  868SOL     Ow 2312   1.662   3.532   5.432
  868SOL     Hw 2313   1.578   3.497   5.397
  868SOL     Hw 2314   1.674   3.606   5.368
  869SOL     Ow 2315   2.165   2.754   4.936
  869SOL     Hw 2316   2.246   2.804   4.946
  869SOL     Hw 2317   2.183   2.676   4.992
  870SOL     Ow 2318   2.296   3.211   4.819
  870SOL     Hw 2319   2.300   3.131   4.764
  870SOL     Hw 2320   2.332   3.177   4.901
  871SOL     Ow 2321   2.814   3.144   4.777
  871SOL     Hw 2322   2.856   3.075   4.834
  871SOL     Hw 2323   2.868   3.219   4.805
  872SOL     Ow 2324   2.067   2.560   4.623
  872SOL     Hw 2325   2.061   2.537   4.528
  872SOL     Hw 2326   2.150   2.515   4.646
  873SOL     Ow 2327   2.328   2.230   4.964
  873SOL     Hw 2328   2.305   2.294   4.894
  873SOL     Hw 2329   2.255   2.246   5.029
  874SOL     Ow 2330   2.613   3.008   4.966
  874SOL     Hw 2331   2.557   3.074   5.013
  874SOL     Hw 2332   2.664   3.065   4.907
  875SOL     Ow 2333   2.297   2.386   4.726
  875SOL     Hw 2334   2.351   2.373   4.646
  875SOL     Hw 2335   2.356   2.443   4.780
  876SOL     Ow 2336   2.455   3.190   5.091
  876SOL     Hw 2337   2.363   3.178   5.125
  876SOL     Hw 2338   2.460   3.288   5.090
  877SOL     Ow 2339   2.701   1.952   4.737
  877SOL     Hw 2340   2.678   1.979   4.647
  877SOL     Hw 2341   2.617   1.973   4.781
  878SOL     Ow 2342   2.482   2.791   4.863
  878SOL     Hw 2343   2.469   2.834   4.778
  878SOL     Hw 2344   2.534   2.860   4.909
  879SOL     Ow 2345   2.602   3.207   5.333
  879SOL     Hw 2346   2.561   3.182   5.248
  879SOL     Hw 2347   2.533   3.268   5.367
  880SOL     Ow 2348   2.285   2.806   5.273
  880SOL     Hw 2349   2.190   2.806   5.249
  880SOL     Hw 2350   2.291   2.894   5.318
  881SOL     Ow 2351   2.407   3.392   5.394
  881SOL     Hw 2352   2.402   3.427   5.302
  881SOL     Hw 2353   2.312   3.389   5.420
  882SOL     Ow 2354   1.966   3.047   5.126
  882SOL     Hw 2355   1.933   3.042   5.034
  882SOL     Hw 2356   1.986   2.954   5.147
  883SOL     Ow 2357   2.023   3.290   4.830
  883SOL     Hw 2358   1.993   3.373   4.790
  883SOL     Hw 2359   2.118   3.292   4.810
  884SOL     Ow 2360   2.842   3.329   5.256
  884SOL     Hw 2361   2.760   3.299   5.300
  884SOL     Hw 2362   2.871   3.404   5.310
  885SOL     Ow 2363   2.205   3.169   5.185
  885SOL     Hw 2364   2.115   3.136   5.163
  885SOL     Hw 2365   2.219   3.132   5.274
  886SOL     Ow 2366   2.433   2.018   4.823
  886SOL     Hw 2367   2.372   2.026   4.749
  886SOL     Hw 2368   2.406   2.095   4.878
  887SOL     Ow 2369   2.920   1.979   5.113
  887SOL     Hw 2370   2.822   1.980   5.123
  887SOL     Hw 2371   2.947   1.935   5.194
  888SOL     Ow 2372   2.444   2.529   4.916
  888SOL     Hw 2373   2.461   2.624   4.895
  888SOL     Hw 2374   2.377   2.538   4.987
  889SOL     Ow 2375   2.950   2.584   5.420
  889SOL     Hw 2376   2.893   2.514   5.459
  889SOL     Hw 2377   3.039   2.555   5.447
  890SOL     Ow 2378   2.239   2.545   5.104
  890SOL     Hw 2379   2.204   2.457   5.130
  890SOL     Hw 2380   2.254   2.588   5.189
  891SOL     Ow 2381   3.050   2.710   5.057
  891SOL     Hw 2382   3.093   2.659   4.983
  891SOL     Hw 2383   2.986   2.643   5.087
  892SOL     Ow 2384   2.273   3.038   5.427
  892SOL     Hw 2385   2.190   3.052   5.476
  892SOL     Hw 2386   2.337   3.035   5.501
  893SOL     Ow 2387   2.873   2.629   4.655
  893SOL     Hw 2388   2.840   2.580   4.577
  893SOL     Hw 2389   2.893   2.558   4.718
  894SOL     Ow 2390   2.691   2.408   4.978
  894SOL     Hw 2391   2.618   2.466   4.949
  894SOL     Hw 2392   2.750   2.468   5.026
  895SOL     Ow 2393   2.974   3.085   5.205
  895SOL     Hw 2394   2.966   3.061   5.298
  895SOL     Hw 2395   2.932   3.174   5.206
  896SOL     Ow 2396   2.317   2.965   4.675
  896SOL     Hw 2397   2.325   2.978   4.579
  896SOL     Hw 2398   2.263   2.886   4.679
  897SOL     Ow 2399   2.012   2.800   5.243
  897SOL     Hw 2400   1.938   2.767   5.189
  897SOL     Hw 2401   1.991   2.758   5.329
  898SOL     Ow 2402   2.730   2.765   5.439
  898SOL     Hw 2403   2.673   2.735   5.365
  898SOL     Hw 2404   2.813   2.718   5.419
  899SOL     Ow 2405   2.713   3.432   5.025
  899SOL     Hw 2406   2.767   3.391   5.095
  899SOL     Hw 2407   2.718   3.526   5.048
  900SOL     Ow 2408   2.928   2.954   4.955
  900SOL     Hw 2409   2.987   2.876   4.960
  900SOL     Hw 2410   2.937   2.989   5.045
  901SOL     Ow 2411   2.135   2.290   5.156
  901SOL     Hw 2412   2.040   2.314   5.145
  901SOL     Hw 2413   2.127   2.210   5.211
  902SOL     Ow 2414   2.176   3.456   5.052
  902SOL     Hw 2415   2.166   3.361   5.043
  902SOL     Hw 2416   2.085   3.481   5.074
  903SOL     Ow 2417   2.979   2.268   5.175
  903SOL     Hw 2418   2.964   2.185   5.128
  903SOL     Hw 2419   3.005   2.238   5.264
  904SOL     Ow 2420   2.882   2.523   5.156
  904SOL     Hw 2421   2.914   2.430   5.154
  904SOL     Hw 2422   2.899   2.546   5.250
  905SOL     Ow 2423   2.123   1.960   4.651
  905SOL     Hw 2424   2.179   1.948   4.571
  905SOL     Hw 2425   2.149   1.882   4.706
  906SOL     Ow 2426   2.558   3.501   5.600
  906SOL     Hw 2427   2.509   3.460   5.525
  906SOL     Hw 2428   2.613   3.425   5.627
  907SOL     Ow 2429   2.027   3.040   5.552
  907SOL     Hw 2430   1.951   3.060   5.493
  907SOL     Hw 2431   2.032   2.943   5.545
  908SOL     Ow 2432   2.687   3.027   5.525
  908SOL     Hw 2433   2.667   3.077   5.443
  908SOL     Hw 2434   2.714   2.940   5.488
  909SOL     Ow 2435   2.100   2.770   5.528
  909SOL     Hw 2436   2.191   2.758   5.497
  909SOL     Hw 2437   2.110   2.759   5.625
  910SOL     Ow 2438   2.520   2.660   5.258
  910SOL     Hw 2439   2.440   2.716   5.262
  910SOL     Hw 2440   2.578   2.712   5.198
  911SOL     Ow 2441   3.001   2.854   5.576
  911SOL     Hw 2442   3.077   2.807   5.537
  911SOL     Hw 2443   2.968   2.788   5.638
  912SOL     Ow 2444   2.546   2.397   5.337
  912SOL     Hw 2445   2.546   2.334   5.262
  912SOL     Hw 2446   2.541   2.484   5.292
  913SOL     Ow 2447   2.555   2.222   5.117
  913SOL     Hw 2448   2.474   2.224   5.063
  913SOL     Hw 2449   2.615   2.276   5.061
  914SOL     Ow 2450   2.710   2.808   5.131
  914SOL     Hw 2451   2.685   2.884   5.075
  914SOL     Hw 2452   2.797   2.785   5.096
  915SOL     Ow 2453   2.388   2.453   5.561
  915SOL     Hw 2454   2.306   2.404   5.543
  915SOL     Hw 2455   2.436   2.440   5.476
  916SOL     Ow 2456   2.648   1.970   5.167
  916SOL     Hw 2457   2.575   1.920   5.123
  916SOL     Hw 2458   2.615   2.062   5.155
  917SOL     Ow 2459   2.779   2.378   5.488
  917SOL     Hw 2460   2.704   2.380   5.425
  917SOL     Hw 2461   2.731   2.350   5.568
  918SOL     Ow 2462   3.022   2.250   5.474
  918SOL     Hw 2463   2.929   2.283   5.474
  918SOL     Hw 2464   3.027   2.215   5.565
  919SOL     Ow 2465   2.175   2.273   5.513
  919SOL     Hw 2466   2.180   2.194   5.455
  919SOL     Hw 2467   2.186   2.229   5.600
  920SOL     Ow 2468   2.667   1.892   5.430
  920SOL     Hw 2469   2.656   1.919   5.337
  920SOL     Hw 2470   2.735   1.822   5.421
  921SOL     Ow 2471   2.724   2.055   5.645
  921SOL     Hw 2472   2.702   2.002   5.565
  921SOL     Hw 2473   2.663   2.131   5.636
  922SOL     Ow 2474   1.949   2.391   5.412
  922SOL     Hw 2475   1.896   2.309   5.424
  922SOL     Hw 2476   2.035   2.360   5.448
  923SOL     Ow 2477   2.060   2.211   4.776
  923SOL     Hw 2478   2.093   2.128   4.738
  923SOL     Hw 2479   2.124   2.275   4.739
  924SOL     Ow 2480   1.892   2.604   4.825
  924SOL     Hw 2481   1.950   2.582   4.748
  924SOL     Hw 2482   1.946   2.568   4.896
  925SOL     Ow 2483   1.947   2.022   5.101
  925SOL     Hw 2484   1.908   2.076   5.029
  925SOL     Hw 2485   1.868   1.994   5.150
  926SOL     Ow 2486   2.148   3.403   5.496
  926SOL     Hw 2487   2.064   3.406   5.445
  926SOL     Hw 2488   2.113   3.373   5.582
  927SOL     Ow 2489   2.435   3.469   5.125
  927SOL     Hw 2490   2.344   3.485   5.089
  927SOL     Hw 2491   2.490   3.487   5.047
  928SOL     Ow 2492   2.936   3.561   5.401
  928SOL     Hw 2493   2.974   3.644   5.433
  928SOL     Hw 2494   2.937   3.509   5.484
  929SOL     Ow 2495   2.554   3.458   4.689
  929SOL     Hw 2496   2.461   3.437   4.671
  929SOL     Hw 2497   2.542   3.541   4.739
  930SOL     Ow 2498   2.979   1.974   4.690
  930SOL     Hw 2499   2.992   2.041   4.622
  930SOL     Hw 2500   2.885   1.985   4.712
  931SOL     Ow 2501   2.185   2.031   5.384
  931SOL     Hw 2502   2.126   1.958   5.412
  931SOL     Hw 2503   2.268   2.002   5.428
  932SOL     Ow 2504   2.389   1.936   5.540
  932SOL     Hw 2505   2.477   1.907   5.510
  932SOL     Hw 2506   2.356   1.856   5.586
  933SOL     Ow 2507   0.141   1.274   5.980
  933SOL     Hw 2508   0.060   1.277   5.929
  933SOL     Hw 2509   0.146   1.365   6.012
  934SOL     Ow 2510   1.057   0.923   6.071
  934SOL     Hw 2511   1.011   0.998   6.029
  934SOL     Hw 2512   1.142   0.920   6.022
  935SOL     Ow 2513   1.106   0.820   5.748
  935SOL     Hw 2514   1.163   0.759   5.695
  935SOL     Hw 2515   1.161   0.830   5.827
  936SOL     Ow 2516   1.306   0.873   5.953
  936SOL     Hw 2517   1.357   0.894   5.871
  936SOL     Hw 2518   1.363   0.915   6.021
  937SOL     Ow 2519   1.673   0.017   5.863
  937SOL     Hw 2520   1.616   0.044   5.937
  937SOL     Hw 2521   1.712   0.103   5.838
  938SOL     Ow 2522   1.803   1.493   5.775
  938SOL     Hw 2523   1.890   1.454   5.751
  938SOL     Hw 2524   1.829   1.588   5.784
  939SOL     Ow 2525   1.338   1.770   5.810
  939SOL     Hw 2526   1.384   1.691   5.774
  939SOL     Hw 2527   1.392   1.789   5.888
  940SOL     Ow 2528   1.436   0.928   5.716
  940SOL     Hw 2529   1.414   0.940   5.622
  940SOL     Hw 2530   1.529   0.956   5.717
  941SOL     Ow 2531   0.998   0.364   5.776
  941SOL     Hw 2532   0.973   0.296   5.710
  941SOL     Hw 2533   0.935   0.345   5.846
  942SOL     Ow 2534   0.693   0.379   5.647
  942SOL     Hw 2535   0.632   0.450   5.621
  942SOL     Hw 2536   0.659   0.360   5.737
  943SOL     Ow 2537   0.135   0.446   5.969
  943SOL     Hw 2538   0.044   0.428   5.945
  943SOL     Hw 2539   0.159   0.509   5.899
  944SOL     Ow 2540   0.669   0.596   6.040
  944SOL     Hw 2541   0.631   0.632   5.957
  944SOL     Hw 2542   0.762   0.622   6.030
  945SOL     Ow 2543   0.602   0.710   5.801
  945SOL     Hw 2544   0.558   0.669   5.723
  945SOL     Hw 2545   0.684   0.742   5.761
  946SOL     Ow 2546   0.875   1.126   5.995
  946SOL     Hw 2547   0.810   1.080   5.937
  946SOL     Hw 2548   0.812   1.163   6.059
  947SOL     Ow 2549   1.261   0.429   5.781
  947SOL     Hw 2550   1.163   0.421   5.785
  947SOL     Hw 2551   1.279   0.491   5.855
  948SOL     Ow 2552   1.319   0.591   5.991
  948SOL     Hw 2553   1.316   0.688   5.986
  948SOL     Hw 2554   1.405   0.574   6.030
  949SOL     Ow 2555   1.047   1.287   5.854
  949SOL     Hw 2556   0.984   1.231   5.902
  949SOL     Hw 2557   1.023   1.376   5.886
  950SOL     Ow 2558   1.824   0.660   5.943
  950SOL     Hw 2559   1.772   0.643   5.861
  950SOL     Hw 2560   1.848   0.754   5.927
  951SOL     Ow 2561   1.631   1.497   5.997
  951SOL     Hw 2562   1.687   1.496   5.917
  951SOL     Hw 2563   1.699   1.493   6.068
  952SOL     Ow 2564   0.222   0.904   5.774
  952SOL     Hw 2565   0.146   0.931   5.826
  952SOL     Hw 2566   0.291   0.956   5.822
  953SOL     Ow 2567   1.419   1.312   5.789
  953SOL     Hw 2568   1.329   1.278   5.792
  953SOL     Hw 2569   1.457   1.272   5.871
  954SOL     Ow 2570   1.878   1.751   5.836
  954SOL     Hw 2571   1.936   1.831   5.831
  954SOL     Hw 2572   1.793   1.794   5.861
  955SOL     Ow 2573   1.545   1.199   6.007
  955SOL     Hw 2574   1.540   1.277   6.066
  955SOL     Hw 2575   1.641   1.177   6.013
  956SOL     Ow 2576   0.802   1.419   5.654
  956SOL     Hw 2577   0.809   1.331   5.612
  956SOL     Hw 2578   0.768   1.397   5.742
  957SOL     Ow 2579   0.672   1.406   5.907
  957SOL     Hw 2580   0.685   1.497   5.940
  957SOL     Hw 2581   0.665   1.355   5.990
  958SOL     Ow 2582   0.345   1.095   5.933
  958SOL     Hw 2583   0.388   1.169   5.885
  958SOL     Hw 2584   0.271   1.146   5.973
  959SOL     Ow 2585   1.268   0.282   6.075
  959SOL     Hw 2586   1.243   0.331   5.996
  959SOL     Hw 2587   1.243   0.344   6.146
  960SOL     Ow 2588   0.974   1.538   5.943
  960SOL     Hw 2589   0.883   1.569   5.958
  960SOL     Hw 2590   1.011   1.616   5.895
  961SOL     Ow 2591   0.735   1.668   5.997
  961SOL     Hw 2592   0.752   1.749   5.943
  961SOL     Hw 2593   0.734   1.708   6.085
  962SOL     Ow 2594   0.590   0.316   5.891
  962SOL     Hw 2595   0.678   0.282   5.920
  962SOL     Hw 2596   0.563   0.353   5.977
  963SOL     Ow 2597   0.439   1.314   5.791
  963SOL     Hw 2598   0.486   1.256   5.728
  963SOL     Hw 2599   0.513   1.368   5.825
  964SOL     Ow 2600   0.145   0.635   5.768
  964SOL     Hw 2601   0.121   0.623   5.674
  964SOL     Hw 2602   0.192   0.720   5.769
  965SOL     Ow 2603   1.012   1.594   5.607
  965SOL     Hw 2604   0.947   1.522   5.624
  965SOL     Hw 2605   1.090   1.544   5.575
  966SOL     Ow 2606   1.453   1.559   5.680
  966SOL     Hw 2607   1.537   1.553   5.631
  966SOL     Hw 2608   1.450   1.473   5.728
  967SOL     Ow 2609   0.568   1.126   5.645
  967SOL     Hw 2610   0.656   1.138   5.602
  967SOL     Hw 2611   0.593   1.074   5.724
  968SOL     Ow 2612   1.149   1.271   5.604
  968SOL     Hw 2613   1.143   1.177   5.576
  968SOL     Hw 2614   1.105   1.268   5.691
  969SOL     Ow 2615   0.658   0.987   5.870
  969SOL     Hw 2616   0.725   0.937   5.818
  969SOL     Hw 2617   0.592   0.917   5.883
  970SOL     Ow 2618   0.830   0.841   5.719
  970SOL     Hw 2619   0.832   0.861   5.622
  970SOL     Hw 2620   0.927   0.830   5.736
  971SOL     Ow 2621   1.699   1.017   5.682
  971SOL     Hw 2622   1.702   0.998   5.586
  971SOL     Hw 2623   1.692   1.115   5.679
  972SOL     Ow 2624   0.837   1.899   5.875
  972SOL     Hw 2625   0.832   1.945   5.789
  972SOL     Hw 2626   0.924   1.854   5.864
  973SOL     Ow 2627   0.197   1.400   5.696
  973SOL     Hw 2628   0.178   1.312   5.658
  973SOL     Hw 2629   0.275   1.380   5.751
  974SOL     Ow 2630   1.806   1.125   6.075
  974SOL     Hw 2631   1.870   1.199   6.071
  974SOL     Hw 2632   1.831   1.078   6.156
  975SOL     Ow 2633   1.864   0.929   5.884
  975SOL     Hw 2634   1.804   0.952   5.809
  975SOL     Hw 2635   1.842   1.000   5.947
  976SOL     Ow 2636   1.686   0.634   5.709
  976SOL     Hw 2637   1.659   0.544   5.683
  976SOL     Hw 2638   1.659   0.683   5.629
  977SOL     Ow 2639   1.605   0.385   5.630
  977SOL     Hw 2640   1.525   0.330   5.623
  977SOL     Hw 2641   1.665   0.329   5.685
  978SOL     Ow 2642   1.797   0.245   5.779
  978SOL     Hw 2643   1.857   0.190   5.724
  978SOL     Hw 2644   1.860   0.299   5.830
  979SOL     Ow 2645   0.167   0.152   5.921
  979SOL     Hw 2646   0.222   0.180   5.846
  979SOL     Hw 2647   0.164   0.235   5.972
  980SOL     Ow 2648   1.487   0.119   6.060
  980SOL     Hw 2649   1.462   0.031   6.096
  980SOL     Hw 2650   1.401   0.166   6.067
  981SOL     Ow 2651   0.100   1.682   6.027
  981SOL     Hw 2652   0.111   1.754   5.964
  981SOL     Hw 2653   0.179   1.696   6.083
  982SOL     Ow 2654   0.356   0.263   5.742
  982SOL     Hw 2655   0.394   0.195   5.683
  982SOL     Hw 2656   0.432   0.284   5.800
  983SOL     Ow 2657   0.837   0.232   5.976
  983SOL     Hw 2658   0.902   0.164   5.958
  983SOL     Hw 2659   0.869   0.270   6.062
  984SOL     Ow 2660   1.063   1.763   5.813
  984SOL     Hw 2661   1.050   1.713   5.729
  984SOL     Hw 2662   1.161   1.773   5.815
  985SOL     Ow 2663   0.386   1.767   5.698
  985SOL     Hw 2664   0.458   1.700   5.690
  985SOL     Hw 2665   0.358   1.754   5.790
  986SOL     Ow 2666   2.007   1.321   6.004
  986SOL     Hw 2667   2.001   1.305   5.908
  986SOL     Hw 2668   2.004   1.419   6.003
  987SOL     Ow 2669   2.991   0.943   5.996
  987SOL     Hw 2670   2.908   0.994   6.003
  987SOL     Hw 2671   3.056   1.015   6.000
  988SOL     Ow 2672   2.943   0.779   5.776
  988SOL     Hw 2673   2.987   0.694   5.785
  988SOL     Hw 2674   2.966   0.823   5.860
  989SOL     Ow 2675   2.915   0.361   5.759
  989SOL     Hw 2676   2.870   0.298   5.700
  989SOL     Hw 2677   2.863   0.348   5.840
  990SOL     Ow 2678   2.590   0.385   5.648
  990SOL     Hw 2679   2.524   0.449   5.617
  990SOL     Hw 2680   2.552   0.363   5.736
  991SOL     Ow 2681   1.970   0.415   5.922
  991SOL     Hw 2682   1.911   0.488   5.948
  991SOL     Hw 2683   2.031   0.466   5.864
  992SOL     Ow 2684   2.582   0.611   6.035
  992SOL     Hw 2685   2.530   0.644   5.957
  992SOL     Hw 2686   2.646   0.553   5.992
  993SOL     Ow 2687   2.473   0.703   5.806
  993SOL     Hw 2688   2.428   0.660   5.730
  993SOL     Hw 2689   2.547   0.747   5.758
  994SOL     Ow 2690   2.770   1.113   6.007
  994SOL     Hw 2691   2.701   1.069   5.954
  994SOL     Hw 2692   2.718   1.137   6.085
  995SOL     Ow 2693   2.933   1.282   5.858
  995SOL     Hw 2694   2.872   1.226   5.909
  995SOL     Hw 2695   2.912   1.371   5.895
  996SOL     Ow 2696   2.121   0.869   5.805
  996SOL     Hw 2697   2.028   0.886   5.834
  996SOL     Hw 2698   2.167   0.942   5.852
  997SOL     Ow 2699   2.682   1.424   5.669
  997SOL     Hw 2700   2.688   1.335   5.629
  997SOL     Hw 2701   2.639   1.404   5.755
  998SOL     Ow 2702   2.539   1.405   5.911
  998SOL     Hw 2703   2.556   1.492   5.952
  998SOL     Hw 2704   2.534   1.346   5.989
  999SOL     Ow 2705   2.218   1.096   5.933
  999SOL     Hw 2706   2.252   1.173   5.884
  999SOL     Hw 2707   2.165   1.139   6.001
 1000SOL     Ow 2708   2.860   1.533   5.954
 1000SOL     Hw 2709   2.899   1.603   5.897
 1000SOL     Hw 2710   2.770   1.570   5.968
 1001SOL     Ow 2711   2.626   1.668   6.002
 1001SOL     Hw 2712   2.633   1.747   5.945
 1001SOL     Hw 2713   2.627   1.710   6.089
 1002SOL     Ow 2714   2.463   0.340   5.886
 1002SOL     Hw 2715   2.411   0.395   5.947
 1002SOL     Hw 2716   2.530   0.306   5.948
 1003SOL     Ow 2717   2.303   1.318   5.785
 1003SOL     Hw 2718   2.352   1.262   5.721
 1003SOL     Hw 2719   2.377   1.368   5.825
 1004SOL     Ow 2720   2.105   0.596   5.765
 1004SOL     Hw 2721   2.075   0.597   5.673
 1004SOL     Hw 2722   2.121   0.691   5.782
 1005SOL     Ow 2723   2.925   1.544   5.606
 1005SOL     Hw 2724   2.838   1.507   5.634
 1005SOL     Hw 2725   2.975   1.461   5.593
 1006SOL     Ow 2726   2.444   1.132   5.643
 1006SOL     Hw 2727   2.533   1.142   5.602
 1006SOL     Hw 2728   2.465   1.077   5.720
 1007SOL     Ow 2729   3.009   1.262   5.598
 1007SOL     Hw 2730   2.988   1.167   5.585
 1007SOL     Hw 2731   2.981   1.273   5.691
 1008SOL     Ow 2732   2.537   0.984   5.888
 1008SOL     Hw 2733   2.595   0.934   5.826
 1008SOL     Hw 2734   2.469   0.917   5.906
 1009SOL     Ow 2735   2.685   0.840   5.709
 1009SOL     Hw 2736   2.693   0.860   5.613
 1009SOL     Hw 2737   2.776   0.811   5.728
 1010SOL     Ow 2738   2.728   1.902   5.875
 1010SOL     Hw 2739   2.717   1.953   5.792
 1010SOL     Hw 2740   2.809   1.850   5.854
 1011SOL     Ow 2741   2.044   1.364   5.722
 1011SOL     Hw 2742   2.036   1.286   5.661
 1011SOL     Hw 2743   2.139   1.355   5.748
 1012SOL     Ow 2744   2.065   0.144   5.938
 1012SOL     Hw 2745   2.026   0.230   5.962
 1012SOL     Hw 2746   2.119   0.172   5.862
 1013SOL     Ow 2747   2.085   1.637   5.973
 1013SOL     Hw 2748   2.007   1.667   5.922
 1013SOL     Hw 2749   2.100   1.715   6.029
 1014SOL     Ow 2750   2.234   0.255   5.743
 1014SOL     Hw 2751   2.270   0.187   5.683
 1014SOL     Hw 2752   2.314   0.285   5.790
 1015SOL     Ow 2753   2.754   0.263   5.969
 1015SOL     Hw 2754   2.791   0.175   5.955
 1015SOL     Hw 2755   2.783   0.279   6.062
 1016SOL     Ow 2756   2.945   1.748   5.798
 1016SOL     Hw 2757   2.951   1.686   5.722
 1016SOL     Hw 2758   3.034   1.787   5.800
 1017SOL     Ow 2759   2.240   1.738   5.686
 1017SOL     Hw 2760   2.320   1.681   5.674
 1017SOL     Hw 2761   2.209   1.708   5.773
 1018SOL     Ow 2762   0.157   3.225   6.011
 1018SOL     Hw 2763   0.073   3.211   5.965
 1018SOL     Hw 2764   0.163   3.322   6.007
 1019SOL     Ow 2765   1.109   2.900   6.095
 1019SOL     Hw 2766   1.025   2.929   6.054
 1019SOL     Hw 2767   1.158   2.861   6.021
 1020SOL     Ow 2768   1.098   2.705   5.748
 1020SOL     Hw 2769   1.149   2.635   5.702
 1020SOL     Hw 2770   1.156   2.723   5.824
 1021SOL     Ow 2771   1.303   2.758   5.937
 1021SOL     Hw 2772   1.357   2.776   5.856
 1021SOL     Hw 2773   1.359   2.799   6.007
 1022SOL     Ow 2774   1.658   1.899   5.912
 1022SOL     Hw 2775   1.684   1.988   5.882
 1022SOL     Hw 2776   1.591   1.920   5.979
 1023SOL     Ow 2777   1.788   3.389   5.767
 1023SOL     Hw 2778   1.884   3.382   5.752
 1023SOL     Hw 2779   1.776   3.482   5.797
 1024SOL     Ow 2780   1.436   2.787   5.698
 1024SOL     Hw 2781   1.419   2.815   5.606
 1024SOL     Hw 2782   1.524   2.827   5.711
 1025SOL     Ow 2783   1.004   2.243   5.773
 1025SOL     Hw 2784   0.971   2.175   5.712
 1025SOL     Hw 2785   0.944   2.227   5.849
 1026SOL     Ow 2786   0.693   2.284   5.665
 1026SOL     Hw 2787   0.626   2.344   5.627
 1026SOL     Hw 2788   0.650   2.262   5.750
 1027SOL     Ow 2789   0.161   2.409   6.010
 1027SOL     Hw 2790   0.161   2.452   5.922
 1027SOL     Hw 2791   0.114   2.328   5.990
 1028SOL     Ow 2792   0.704   2.501   6.039
 1028SOL     Hw 2793   0.654   2.532   5.960
 1028SOL     Hw 2794   0.780   2.459   5.997
 1029SOL     Ow 2795   0.598   2.587   5.797
 1029SOL     Hw 2796   0.550   2.548   5.721
 1029SOL     Hw 2797   0.678   2.622   5.754
 1030SOL     Ow 2798   0.877   3.002   5.981
 1030SOL     Hw 2799   0.807   2.959   5.929
 1030SOL     Hw 2800   0.823   3.038   6.054
 1031SOL     Ow 2801   1.262   2.322   5.788
 1031SOL     Hw 2802   1.166   2.298   5.789
 1031SOL     Hw 2803   1.270   2.381   5.866
 1032SOL     Ow 2804   1.307   2.485   6.000
 1032SOL     Hw 2805   1.310   2.580   5.977
 1032SOL     Hw 2806   1.392   2.471   6.044
 1033SOL     Ow 2807   1.059   3.171   5.850
 1033SOL     Hw 2808   1.002   3.112   5.903
 1033SOL     Hw 2809   1.045   3.257   5.894
 1034SOL     Ow 2810   1.826   2.550   5.942
 1034SOL     Hw 2811   1.775   2.530   5.860
 1034SOL     Hw 2812   1.846   2.644   5.926
 1035SOL     Ow 2813   1.626   3.349   5.994
 1035SOL     Hw 2814   1.688   3.367   5.921
 1035SOL     Hw 2815   1.682   3.368   6.073
 1036SOL     Ow 2816   0.222   2.797   5.773
 1036SOL     Hw 2817   0.143   2.819   5.822
 1036SOL     Hw 2818   0.285   2.854   5.822
 1037SOL     Ow 2819   1.398   3.161   5.782
 1037SOL     Hw 2820   1.306   3.162   5.811
 1037SOL     Hw 2821   1.444   3.128   5.862
 1038SOL     Ow 2822   1.540   3.073   6.006
 1038SOL     Hw 2823   1.538   3.163   6.043
 1038SOL     Hw 2824   1.635   3.055   5.999
 1039SOL     Ow 2825   0.813   3.271   5.662
 1039SOL     Hw 2826   0.823   3.184   5.618
 1039SOL     Hw 2827   0.776   3.246   5.750
 1040SOL     Ow 2828   0.681   3.259   5.908
 1040SOL     Hw 2829   0.701   3.352   5.935
 1040SOL     Hw 2830   0.670   3.214   5.993
 1041SOL     Ow 2831   0.320   3.002   5.938
 1041SOL     Hw 2832   0.377   3.063   5.888
 1041SOL     Hw 2833   0.262   3.068   5.981
 1042SOL     Ow 2834   1.262   2.167   6.079
 1042SOL     Hw 2835   1.256   2.227   6.004
 1042SOL     Hw 2836   1.261   2.228   6.156
 1043SOL     Ow 2837   0.990   3.436   5.931
 1043SOL     Hw 2838   0.898   3.467   5.933
 1043SOL     Hw 2839   1.015   3.457   5.839
 1044SOL     Ow 2840   0.733   3.534   5.929
 1044SOL     Hw 2841   0.697   3.566   5.845
 1044SOL     Hw 2842   0.704   3.603   5.991
 1045SOL     Ow 2843   0.564   2.204   5.894
 1045SOL     Hw 2844   0.655   2.174   5.914
 1045SOL     Hw 2845   0.545   2.248   5.978
 1046SOL     Ow 2846   0.441   3.200   5.789
 1046SOL     Hw 2847   0.486   3.142   5.724
 1046SOL     Hw 2848   0.518   3.242   5.831
 1047SOL     Ow 2849   0.149   2.524   5.762
 1047SOL     Hw 2850   0.127   2.504   5.669
 1047SOL     Hw 2851   0.195   2.611   5.758
 1048SOL     Ow 2852   1.025   3.446   5.657
 1048SOL     Hw 2853   0.957   3.375   5.655
 1048SOL     Hw 2854   1.100   3.402   5.615
 1049SOL     Ow 2855   1.467   3.468   5.647
 1049SOL     Hw 2856   1.551   3.503   5.613
 1049SOL     Hw 2857   1.489   3.451   5.739
 1050SOL     Ow 2858   0.566   3.008   5.644
 1050SOL     Hw 2859   0.653   3.015   5.600
 1050SOL     Hw 2860   0.590   2.960   5.726
 1051SOL     Ow 2861   1.127   3.158   5.587
 1051SOL     Hw 2862   1.132   3.061   5.571
 1051SOL     Hw 2863   1.102   3.158   5.682
 1052SOL     Ow 2864   0.645   2.867   5.868
 1052SOL     Hw 2865   0.716   2.817   5.821
 1052SOL     Hw 2866   0.580   2.795   5.877
 1053SOL     Ow 2867   0.823   2.726   5.718
 1053SOL     Hw 2868   0.826   2.743   5.621
 1053SOL     Hw 2869   0.919   2.716   5.738
 1054SOL     Ow 2870   1.686   2.910   5.689
 1054SOL     Hw 2871   1.692   2.892   5.593
 1054SOL     Hw 2872   1.676   3.008   5.686
 1055SOL     Ow 2873   0.194   3.276   5.698
 1055SOL     Hw 2874   0.182   3.190   5.656
 1055SOL     Hw 2875   0.273   3.259   5.753
 1056SOL     Ow 2876   1.814   3.013  -0.031
 1056SOL     Hw 2877   1.866   3.095  -0.044
 1056SOL     Hw 2878   1.839   2.990   0.060
 1057SOL     Ow 2879   1.862   2.818   5.879
 1057SOL     Hw 2880   1.797   2.845   5.810
 1057SOL     Hw 2881   1.847   2.887   5.947
 1058SOL     Ow 2882   1.699   2.514   5.705
 1058SOL     Hw 2883   1.673   2.424   5.676
 1058SOL     Hw 2884   1.662   2.565   5.632
 1059SOL     Ow 2885   1.613   2.273   5.613
 1059SOL     Hw 2886   1.526   2.232   5.596
 1059SOL     Hw 2887   1.651   2.214   5.681
 1060SOL     Ow 2888   1.762   2.134   5.807
 1060SOL     Hw 2889   1.814   2.076   5.747
 1060SOL     Hw 2890   1.832   2.190   5.846
 1061SOL     Ow 2891   0.166   1.937   5.862
 1061SOL     Hw 2892   0.219   1.984   5.795
 1061SOL     Hw 2893   0.177   1.994   5.938
 1062SOL     Ow 2894   1.457   1.980   6.083
 1062SOL     Hw 2895   1.380   2.041   6.076
 1062SOL     Hw 2896   1.421   1.915   6.147
 1063SOL     Ow 2897   0.118   3.523   6.061
 1063SOL     Hw 2898   0.124   3.591   5.990
 1063SOL     Hw 2899   0.154   3.575   6.136
 1064SOL     Ow 2900   0.364   2.108   5.727
 1064SOL     Hw 2901   0.419   2.052   5.668
 1064SOL     Hw 2902   0.432   2.141   5.790
 1065SOL     Ow 2903   0.824   2.159   5.961
 1065SOL     Hw 2904   0.828   2.061   5.951
 1065SOL     Hw 2905   0.803   2.171   6.055
 1066SOL     Ow 2906   1.991   3.221   6.000
 1066SOL     Hw 2907   1.989   3.218   5.903
 1066SOL     Hw 2908   1.991   3.319   6.010
 1067SOL     Ow 2909   2.990   2.830   5.979
 1067SOL     Hw 2910   2.903   2.865   6.006
 1067SOL     Hw 2911   3.043   2.911   5.985
 1068SOL     Ow 2912   2.941   2.658   5.772
 1068SOL     Hw 2913   2.989   2.576   5.788
 1068SOL     Hw 2914   2.964   2.711   5.852
 1069SOL     Ow 2915   2.911   2.225   5.758
 1069SOL     Hw 2916   2.849   2.164   5.715
 1069SOL     Hw 2917   2.884   2.214   5.851
 1070SOL     Ow 2918   2.583   2.288   5.668
 1070SOL     Hw 2919   2.513   2.346   5.630
 1070SOL     Hw 2920   2.541   2.263   5.753
 1071SOL     Ow 2921   1.962   2.305   5.904
 1071SOL     Hw 2922   1.909   2.380   5.938
 1071SOL     Hw 2923   2.026   2.356   5.850
 1072SOL     Ow 2924   2.582   2.497   6.036
 1072SOL     Hw 2925   2.528   2.530   5.959
 1072SOL     Hw 2926   2.659   2.464   5.989
 1073SOL     Ow 2927   2.470   2.581   5.801
 1073SOL     Hw 2928   2.421   2.542   5.726
 1073SOL     Hw 2929   2.543   2.625   5.754
 1074SOL     Ow 2930   2.767   2.991   6.004
 1074SOL     Hw 2931   2.702   2.941   5.950
 1074SOL     Hw 2932   2.707   3.028   6.070
 1075SOL     Ow 2933   2.948   3.152   5.863
 1075SOL     Hw 2934   2.890   3.098   5.921
 1075SOL     Hw 2935   2.926   3.242   5.894
 1076SOL     Ow 2936   2.118   2.764   5.801
 1076SOL     Hw 2937   2.025   2.778   5.830
 1076SOL     Hw 2938   2.162   2.837   5.850
 1077SOL     Ow 2939   2.692   3.267   5.671
 1077SOL     Hw 2940   2.698   3.180   5.628
 1077SOL     Hw 2941   2.645   3.246   5.755
 1078SOL     Ow 2942   2.546   3.259   5.909
 1078SOL     Hw 2943   2.573   3.346   5.942
 1078SOL     Hw 2944   2.539   3.206   5.991
 1079SOL     Ow 2945   2.211   2.990   5.935
 1079SOL     Hw 2946   2.244   3.067   5.885
 1079SOL     Hw 2947   2.155   3.033   5.999
 1080SOL     Ow 2948   2.873   3.418   5.918
 1080SOL     Hw 2949   2.905   3.443   5.830
 1080SOL     Hw 2950   2.783   3.457   5.918
 1081SOL     Ow 2951   2.619   3.533   5.921
 1081SOL     Hw 2952   2.579   3.555   5.835
 1081SOL     Hw 2953   2.578   3.597   5.980
 1082SOL     Ow 2954   2.440   2.221   5.895
 1082SOL     Hw 2955   2.385   2.290   5.935
 1082SOL     Hw 2956   2.489   2.190   5.974
 1083SOL     Ow 2957   2.306   3.206   5.784
 1083SOL     Hw 2958   2.352   3.147   5.722
 1083SOL     Hw 2959   2.383   3.245   5.830
 1084SOL     Ow 2960   2.109   2.489   5.758
 1084SOL     Hw 2961   2.063   2.498   5.675
 1084SOL     Hw 2962   2.125   2.583   5.782
 1085SOL     Ow 2963   2.927   3.400   5.624
 1085SOL     Hw 2964   2.842   3.354   5.640
 1085SOL     Hw 2965   2.986   3.324   5.610
 1086SOL     Ow 2966   2.446   3.016   5.650
 1086SOL     Hw 2967   2.533   3.014   5.603
 1086SOL     Hw 2968   2.470   2.972   5.733
 1087SOL     Ow 2969   3.012   3.125   5.600
 1087SOL     Hw 2970   2.993   3.029   5.589
 1087SOL     Hw 2971   2.986   3.136   5.694
 1088SOL     Ow 2972   2.530   2.875   5.878
 1088SOL     Hw 2973   2.586   2.820   5.819
 1088SOL     Hw 2974   2.456   2.815   5.892
 1089SOL     Ow 2975   2.681   2.722   5.705
 1089SOL     Hw 2976   2.691   2.739   5.609
 1089SOL     Hw 2977   2.772   2.693   5.726
 1090SOL     Ow 2978   2.047   3.259   5.723
 1090SOL     Hw 2979   2.035   3.180   5.667
 1090SOL     Hw 2980   2.142   3.249   5.750
 1091SOL     Ow 2981   2.045   1.968   5.859
 1091SOL     Hw 2982   2.111   2.004   5.798
 1091SOL     Hw 2983   2.034   2.043   5.920
 1092SOL     Ow 2984   2.035   3.491   6.029
 1092SOL     Hw 2985   2.038   3.578   5.983
 1092SOL     Hw 2986   2.049   3.522   6.119
 1093SOL     Ow 2987   2.254   2.106   5.720
 1093SOL     Hw 2988   2.309   2.045   5.667
 1093SOL     Hw 2989   2.318   2.139   5.786
 1094SOL     Ow 2990   2.793   2.151   6.005
 1094SOL     Hw 2991   2.772   2.061   5.973
 1094SOL     Hw 2992   2.712   2.173   6.055
    1MIN    Sit 2993   0.152   0.218   1.782
    1MIN    Sit 2994   0.146   0.515   1.782
    1MIN    Sit 2995   0.412   0.669   1.782
    1MIN     Ob 2996   0.521   0.171   1.738
    1MIN     Ob 2997   0.264   0.117   1.716
    1MIN     Ob 2998   0.177   0.367   1.717
    1MIN     Ob 2999   0.261   0.621   1.738
    1MIN     Ob 3000   0.523   0.568   1.716
    1MIN     Ob 3001   0.437   0.818   1.717
    1MIN    Mgo 3002   0.230   0.075   2.053
    1MIN    Alo 3003   0.230   0.375   2.053
    1MIN    Alo 3004   0.490   0.526   2.053
    1MIN    Alo 3005   0.489   0.826   2.053
    1MIN    Omg 3006   0.391   0.051   1.946
    1MIN    Omg 3007   0.170   0.224   1.946
    1MIN    Omg 3008   0.290   0.227   2.159
    1MIN   Ohmg 3009   0.068   0.057   2.153
    1MIN    Omg 3010   0.131   0.502   1.946
    1MIN     Oh 3011   0.392   0.394   1.953
    1MIN     Oh 3012   0.327   0.507   2.153
    1MIN     Op 3013   0.588   0.400   2.159
    1MIN     Op 3014   0.430   0.675   1.946
    1MIN   Ohmg 3015   0.652   0.845   1.953
    1MIN     Op 3016   0.549   0.677   2.159
    1MIN    Omg 3017   0.329   0.850   2.159
    1MIN      H 3018   0.007   0.127   2.156
    1MIN      H 3019   0.434   0.317   1.926
    1MIN      H 3020   0.281   0.582   2.180
    1MIN      H 3021   0.694   0.772   1.916
    1MIN    Sit 3022   0.307   0.233   2.323
    1MIN    Sit 3023   0.574   0.387   2.323
    1MIN    Sit 3024   0.567   0.683   2.323
    1MIN    Sit 3025   0.314   0.838   2.323
    1MIN     Ob 3026   0.283   0.084   2.388
    1MIN     Ob 3027   0.196   0.334   2.389
    1MIN     Ob 3028   0.458   0.280   2.368
    1MIN     Ob 3029   0.542   0.534   2.388
    1MIN     Ob 3030   0.456   0.785   2.389
    1MIN     Ob 3031   0.199   0.731   2.368
    1MIN    Sit 3032   0.405   0.965   1.782
    1MIN    Sit 3033   0.152   1.120   1.782
    1MIN    Sit 3034   0.146   1.416   1.782
    1MIN    Sit 3035   0.412   1.570   1.782
    1MIN     Ob 3036   0.521   1.072   1.738
    1MIN     Ob 3037   0.264   1.018   1.716
    1MIN     Ob 3038   0.177   1.269   1.717
    1MIN     Ob 3039   0.261   1.523   1.738
    1MIN     Ob 3040   0.523   1.469   1.716
    1MIN     Ob 3041   0.437   1.719   1.717
    1MIN    Mgo 3042   0.230   0.977   2.053
    1MIN    Alo 3043   0.230   1.277   2.053
    1MIN    Mgo 3044   0.490   1.428   2.053
    1MIN    Alo 3045   0.489   1.728   2.053
    1MIN    Omg 3046   0.391   0.953   1.946
    1MIN    Omg 3047   0.170   1.126   1.946
    1MIN    Omg 3048   0.290   1.128   2.159
    1MIN   Ohmg 3049   0.068   0.958   2.153
    1MIN     Op 3050   0.131   1.404   1.946
    1MIN   Ohmg 3051   0.392   1.296   1.953
    1MIN   Ohmg 3052   0.327   1.409   2.153
    1MIN    Omg 3053   0.588   1.301   2.159
    1MIN    Omg 3054   0.430   1.576   1.946
    1MIN   Ohmg 3055   0.652   1.747   1.953
    1MIN    Omg 3056   0.549   1.579   2.159
    1MIN    Omg 3057   0.329   1.752   2.159
    1MIN      H 3058   0.000   1.021   2.140
    1MIN      H 3059   0.437   1.219   1.927
    1MIN      H 3060   0.285   1.487   2.177
    1MIN      H 3061   0.695   1.670   1.925
    1MIN    Sit 3062   0.307   1.134   2.323
    1MIN    Sit 3063   0.574   1.288   2.323
    1MIN    Sit 3064   0.567   1.585   2.323
    1MIN    Sit 3065   0.314   1.739   2.323
    1MIN     Ob 3066   0.283   0.985   2.388
    1MIN     Ob 3067   0.196   1.235   2.389
    1MIN     Ob 3068   0.458   1.182   2.368
    1MIN     Ob 3069   0.542   1.436   2.388
    1MIN     Ob 3070   0.456   1.686   2.389
    1MIN     Ob 3071   0.199   1.632   2.368
    1MIN    Sit 3072   0.405   1.867   1.782
    1MIN    Sit 3073   0.152   2.021   1.782
    1MIN    Sit 3074   0.146   2.318   1.782
    1MIN    Sit 3075   0.412   2.472   1.782
    1MIN     Ob 3076   0.521   1.974   1.738
    1MIN     Ob 3077   0.264   1.920   1.716
    1MIN     Ob 3078   0.177   2.170   1.717
    1MIN     Ob 3079   0.261   2.424   1.738
    1MIN     Ob 3080   0.523   2.371   1.716
    1MIN     Ob 3081   0.437   2.621   1.717
    1MIN    Mgo 3082   0.230   1.878   2.053
    1MIN    Alo 3083   0.230   2.179   2.053
    1MIN    Mgo 3084   0.490   2.329   2.053
    1MIN    Alo 3085   0.489   2.629   2.053
    1MIN    Omg 3086   0.391   1.854   1.946
    1MIN    Omg 3087   0.170   2.027   1.946
    1MIN    Omg 3088   0.290   2.030   2.159
    1MIN   Ohmg 3089   0.068   1.860   2.153
    1MIN     Op 3090   0.131   2.305   1.946
    1MIN   Ohmg 3091   0.392   2.197   1.953
    1MIN   Ohmg 3092   0.327   2.310   2.153
    1MIN    Omg 3093   0.588   2.203   2.159
    1MIN    Omg 3094   0.430   2.478   1.946
    1MIN     Oh 3095   0.652   2.648   1.953
    1MIN    Omg 3096   0.549   2.481   2.159
    1MIN    Omg 3097   0.329   2.653   2.159
    1MIN      H 3098   0.023   1.937   2.179
    1MIN      H 3099   0.436   2.120   1.927
    1MIN      H 3100   0.283   2.387   2.176
    1MIN      H 3101   0.694   2.570   1.927
    1MIN    Sit 3102   0.307   2.036   2.323
    1MIN    Sit 3103   0.574   2.190   2.323
    1MIN    Sit 3104   0.567   2.487   2.323
    1MIN    Sit 3105   0.314   2.641   2.323
    1MIN     Ob 3106   0.283   1.887   2.388
    1MIN     Ob 3107   0.196   2.137   2.389
    1MIN     Ob 3108   0.458   2.083   2.368
    1MIN     Ob 3109   0.542   2.337   2.388
    1MIN     Ob 3110   0.456   2.588   2.389
    1MIN     Ob 3111   0.199   2.534   2.368
    1MIN    Sit 3112   0.405   2.769   1.782
    1MIN    Sit 3113   0.152   2.923   1.782
    1MIN    Sit 3114   0.146   3.219   1.782
    1MIN    Sit 3115   0.412   3.373   1.782
    1MIN     Ob 3116   0.521   2.875   1.738
    1MIN     Ob 3117   0.264   2.822   1.716
    1MIN     Ob 3118   0.177   3.072   1.717
    1MIN     Ob 3119   0.261   3.326   1.738
    1MIN     Ob 3120   0.523   3.272   1.716
    1MIN     Ob 3121   0.437   3.523   1.717
    1MIN    Mgo 3122   0.230   2.780   2.053
    1MIN    Alo 3123   0.230   3.080   2.053
    1MIN    Mgo 3124   0.490   3.231   2.053
    1MIN    Alo 3125   0.489   3.531   2.053
    1MIN    Omg 3126   0.391   2.756   1.946
    1MIN    Omg 3127   0.170   2.929   1.946
    1MIN    Omg 3128   0.290   2.931   2.159
    1MIN   Ohmg 3129   0.068   2.761   2.153
    1MIN    Omg 3130   0.131   3.207   1.946
    1MIN   Ohmg 3131   0.392   3.099   1.953
    1MIN   Ohmg 3132   0.327   3.212   2.153
    1MIN    Omg 3133   0.588   3.104   2.159
    1MIN    Omg 3134   0.430   3.379   1.946
    1MIN   Ohmg 3135   0.652   3.550   1.953
    1MIN    Omg 3136   0.549   3.382   2.159
    1MIN    Omg 3137   0.329   3.555   2.159
    1MIN      H 3138   0.008   2.833   2.153
    1MIN      H 3139   0.436   3.021   1.930
    1MIN      H 3140   0.282   3.288   2.180
    1MIN      H 3141   0.711   3.478   1.951
    1MIN    Sit 3142   0.307   2.937   2.323
    1MIN    Sit 3143   0.574   3.091   2.323
    1MIN    Sit 3144   0.567   3.388   2.323
    1MIN    Sit 3145   0.314   3.542   2.323
    1MIN     Ob 3146   0.283   2.788   2.388
    1MIN     Ob 3147   0.196   3.038   2.389
    1MIN     Ob 3148   0.458   2.985   2.368
    1MIN     Ob 3149   0.542   3.239   2.388
    1MIN     Ob 3150   0.456   3.489   2.389
    1MIN     Ob 3151   0.199   3.435   2.368
    1MIN    Sit 3152   0.924   0.064   1.782
    1MIN    Sit 3153   0.672   0.218   1.782
    1MIN    Sit 3154   0.665   0.515   1.782
    1MIN    Sit 3155   0.931   0.669   1.782
    1MIN     Ob 3156   1.040   0.171   1.738
    1MIN     Ob 3157   0.783   0.117   1.716
    1MIN     Ob 3158   0.696   0.367   1.717
    1MIN     Ob 3159   0.780   0.621   1.738
    1MIN     Ob 3160   1.042   0.568   1.716
    1MIN     Ob 3161   0.956   0.818   1.717
    1MIN    Mgo 3162   0.749   0.075   2.053
    1MIN    Alo 3163   0.749   0.375   2.053
    1MIN    Alo 3164   1.009   0.526   2.053
    1MIN    Alo 3165   1.009   0.826   2.053
    1MIN    Omg 3166   0.910   0.051   1.946
    1MIN    Omg 3167   0.689   0.224   1.946
    1MIN    Omg 3168   0.809   0.227   2.159
    1MIN   Ohmg 3169   0.587   0.057   2.153
    1MIN     Op 3170   0.650   0.502   1.946
    1MIN     Oh 3171   0.912   0.394   1.953
    1MIN     Oh 3172   0.846   0.507   2.153
    1MIN     Op 3173   1.108   0.400   2.159
    1MIN     Op 3174   0.949   0.675   1.946
    1MIN     Oh 3175   1.171   0.845   1.953
    1MIN     Op 3176   1.069   0.677   2.159
    1MIN    Omg 3177   0.848   0.850   2.159
    1MIN      H 3178   0.519   0.120   2.146
    1MIN      H 3179   0.953   0.319   1.920
    1MIN      H 3180   0.802   0.583   2.179
    1MIN      H 3181   1.214   0.772   1.917
    1MIN    Sit 3182   0.827   0.233   2.323
    1MIN    Sit 3183   1.093   0.387   2.323
    1MIN    Sit 3184   1.086   0.683   2.323
    1MIN    Sit 3185   0.833   0.838   2.323
    1MIN     Ob 3186   0.802   0.084   2.388
    1MIN     Ob 3187   0.715   0.334   2.389
    1MIN     Ob 3188   0.977   0.280   2.368
    1MIN     Ob 3189   1.062   0.534   2.388
    1MIN     Ob 3190   0.975   0.785   2.389
    1MIN     Ob 3191   0.718   0.731   2.368
    1MIN    Sit 3192   0.924   0.965   1.782
    1MIN    Sit 3193   0.672   1.120   1.782
    1MIN    Sit 3194   0.665   1.416   1.782
    1MIN    Sit 3195   0.931   1.570   1.782
    1MIN     Ob 3196   1.040   1.072   1.738
    1MIN     Ob 3197   0.783   1.018   1.716
    1MIN     Ob 3198   0.696   1.269   1.717
    1MIN     Ob 3199   0.780   1.523   1.738
    1MIN     Ob 3200   1.042   1.469   1.716
    1MIN     Ob 3201   0.956   1.719   1.717
    1MIN    Mgo 3202   0.749   0.977   2.053
    1MIN    Alo 3203   0.749   1.277   2.053
    1MIN    Mgo 3204   1.009   1.428   2.053
    1MIN    Alo 3205   1.009   1.728   2.053
    1MIN    Omg 3206   0.910   0.953   1.946
    1MIN    Omg 3207   0.689   1.126   1.946
    1MIN    Omg 3208   0.809   1.128   2.159
    1MIN   Ohmg 3209   0.587   0.958   2.153
    1MIN    Omg 3210   0.650   1.404   1.946
    1MIN   Ohmg 3211   0.912   1.296   1.953
    1MIN   Ohmg 3212   0.846   1.409   2.153
    1MIN    Omg 3213   1.108   1.301   2.159
    1MIN    Omg 3214   0.949   1.576   1.946
    1MIN     Oh 3215   1.171   1.747   1.953
    1MIN    Omg 3216   1.069   1.579   2.159
    1MIN    Omg 3217   0.848   1.752   2.159
    1MIN      H 3218   0.541   1.035   2.171
    1MIN      H 3219   0.953   1.222   1.918
    1MIN      H 3220   0.801   1.487   2.170
    1MIN      H 3221   1.214   1.670   1.924
    1MIN    Sit 3222   0.827   1.134   2.323
    1MIN    Sit 3223   1.093   1.288   2.323
    1MIN    Sit 3224   1.086   1.585   2.323
    1MIN    Sit 3225   0.833   1.739   2.323
    1MIN     Ob 3226   0.802   0.985   2.388
    1MIN     Ob 3227   0.715   1.235   2.389
    1MIN     Ob 3228   0.977   1.182   2.368
    1MIN     Ob 3229   1.062   1.436   2.388
    1MIN     Ob 3230   0.975   1.686   2.389
    1MIN     Ob 3231   0.718   1.632   2.368
    1MIN    Sit 3232   0.924   1.867   1.782
    1MIN    Sit 3233   0.672   2.021   1.782
    1MIN    Sit 3234   0.665   2.318   1.782
    1MIN    Sit 3235   0.931   2.472   1.782
    1MIN     Ob 3236   1.040   1.974   1.738
    1MIN     Ob 3237   0.783   1.920   1.716
    1MIN     Ob 3238   0.696   2.170   1.717
    1MIN     Ob 3239   0.780   2.424   1.738
    1MIN     Ob 3240   1.042   2.371   1.716
    1MIN     Ob 3241   0.956   2.621   1.717
    1MIN    Mgo 3242   0.749   1.878   2.053
    1MIN    Alo 3243   0.749   2.179   2.053
    1MIN    Alo 3244   1.009   2.329   2.053
    1MIN    Alo 3245   1.009   2.629   2.053
    1MIN    Omg 3246   0.910   1.854   1.946
    1MIN    Omg 3247   0.689   2.027   1.946
    1MIN    Omg 3248   0.809   2.030   2.159
    1MIN   Ohmg 3249   0.587   1.860   2.153
    1MIN    Omg 3250   0.650   2.305   1.946
    1MIN     Oh 3251   0.912   2.197   1.953
    1MIN     Oh 3252   0.846   2.310   2.153
    1MIN     Op 3253   1.108   2.203   2.159
    1MIN     Op 3254   0.949   2.478   1.946
    1MIN   Ohmg 3255   1.171   2.648   1.953
    1MIN     Op 3256   1.069   2.481   2.159
    1MIN     Op 3257   0.848   2.653   2.159
    1MIN      H 3258   0.541   1.936   2.174
    1MIN      H 3259   0.953   2.120   1.925
    1MIN      H 3260   0.801   2.384   2.183
    1MIN      H 3261   1.217   2.573   1.926
    1MIN    Sit 3262   0.827   2.036   2.323
    1MIN    Sit 3263   1.093   2.190   2.323
    1MIN    Sit 3264   1.086   2.487   2.323
    1MIN    Sit 3265   0.833   2.641   2.323
    1MIN     Ob 3266   0.802   1.887   2.388
    1MIN     Ob 3267   0.715   2.137   2.389
    1MIN     Ob 3268   0.977   2.083   2.368
    1MIN     Ob 3269   1.062   2.337   2.388
    1MIN     Ob 3270   0.975   2.588   2.389
    1MIN     Ob 3271   0.718   2.534   2.368
    1MIN    Sit 3272   0.924   2.769   1.782
    1MIN    Sit 3273   0.672   2.923   1.782
    1MIN    Sit 3274   0.665   3.219   1.782
    1MIN    Sit 3275   0.931   3.373   1.782
    1MIN     Ob 3276   1.040   2.875   1.738
    1MIN     Ob 3277   0.783   2.822   1.716
    1MIN     Ob 3278   0.696   3.072   1.717
    1MIN     Ob 3279   0.780   3.326   1.738
    1MIN     Ob 3280   1.042   3.272   1.716
    1MIN     Ob 3281   0.956   3.523   1.717
    1MIN    Alo 3282   0.749   2.780   2.053
    1MIN    Alo 3283   0.749   3.080   2.053
    1MIN    Mgo 3284   1.009   3.231   2.053
    1MIN    Alo 3285   1.009   3.531   2.053
    1MIN     Op 3286   0.910   2.756   1.946
    1MIN     Op 3287   0.689   2.929   1.946
    1MIN     Op 3288   0.809   2.931   2.159
    1MIN     Oh 3289   0.587   2.761   2.153
    1MIN    Omg 3290   0.650   3.207   1.946
    1MIN   Ohmg 3291   0.912   3.099   1.953
    1MIN   Ohmg 3292   0.846   3.212   2.153
    1MIN    Omg 3293   1.108   3.104   2.159
    1MIN    Omg 3294   0.949   3.379   1.946
    1MIN     Oh 3295   1.171   3.550   1.953
    1MIN    Omg 3296   1.069   3.382   2.159
    1MIN    Omg 3297   0.848   3.555   2.159
    1MIN      H 3298   0.541   2.838   2.176
    1MIN      H 3299   0.958   3.023   1.929
    1MIN      H 3300   0.802   3.288   2.178
    1MIN      H 3301   1.220   3.472   1.936
    1MIN    Sit 3302   0.827   2.937   2.323
    1MIN    Sit 3303   1.093   3.091   2.323
    1MIN    Sit 3304   1.086   3.388   2.323
    1MIN    Sit 3305   0.833   3.542   2.323
    1MIN     Ob 3306   0.802   2.788   2.388
    1MIN     Ob 3307   0.715   3.038   2.389
    1MIN     Ob 3308   0.977   2.985   2.368
    1MIN     Ob 3309   1.062   3.239   2.388
    1MIN     Ob 3310   0.975   3.489   2.389
    1MIN     Ob 3311   0.718   3.435   2.368
    1MIN    Sit 3312   1.444   0.064   1.782
    1MIN    Sit 3313   1.191   0.218   1.782
    1MIN    Sit 3314   1.184   0.515   1.782
    1MIN    Sit 3315   1.450   0.669   1.782
    1MIN     Ob 3316   1.559   0.171   1.738
    1MIN     Ob 3317   1.302   0.117   1.716
    1MIN     Ob 3318   1.215   0.367   1.717
    1MIN     Ob 3319   1.300   0.621   1.738
    1MIN     Ob 3320   1.562   0.568   1.716
    1MIN     Ob 3321   1.475   0.818   1.717
    1MIN    Alo 3322   1.268   0.075   2.053
    1MIN    Alo 3323   1.268   0.375   2.053
    1MIN    Mgo 3324   1.528   0.526   2.053
    1MIN    Alo 3325   1.528   0.826   2.053
    1MIN     Op 3326   1.429   0.051   1.946
    1MIN     Op 3327   1.208   0.224   1.946
    1MIN     Op 3328   1.328   0.227   2.159
    1MIN     Oh 3329   1.106   0.057   2.153
    1MIN     Op 3330   1.169   0.502   1.946
    1MIN   Ohmg 3331   1.431   0.394   1.953
    1MIN   Ohmg 3332   1.366   0.507   2.153
    1MIN    Omg 3333   1.627   0.400   2.159
    1MIN    Omg 3334   1.468   0.675   1.946
    1MIN   Ohmg 3335   1.690   0.845   1.953
    1MIN    Omg 3336   1.588   0.677   2.159
    1MIN     Op 3337   1.367   0.850   2.159
    1MIN      H 3338   1.042   0.124   2.155
    1MIN      H 3339   1.476   0.320   1.922
    1MIN      H 3340   1.322   0.584   2.179
    1MIN      H 3341   1.733   0.769   1.923
    1MIN    Sit 3342   1.346   0.233   2.323
    1MIN    Sit 3343   1.612   0.387   2.323
    1MIN    Sit 3344   1.605   0.683   2.323
    1MIN    Sit 3345   1.353   0.838   2.323
    1MIN     Ob 3346   1.321   0.084   2.388
    1MIN     Ob 3347   1.235   0.334   2.389
    1MIN     Ob 3348   1.497   0.280   2.368
    1MIN     Ob 3349   1.581   0.534   2.388
    1MIN     Ob 3350   1.494   0.785   2.389
    1MIN     Ob 3351   1.237   0.731   2.368
    1MIN    Sit 3352   1.444   0.965   1.782
    1MIN    Sit 3353   1.191   1.120   1.782
    1MIN    Sit 3354   1.184   1.416   1.782
    1MIN    Sit 3355   1.450   1.570   1.782
    1MIN     Ob 3356   1.559   1.072   1.738
    1MIN     Ob 3357   1.302   1.018   1.716
    1MIN     Ob 3358   1.215   1.269   1.717
    1MIN     Ob 3359   1.300   1.523   1.738
    1MIN     Ob 3360   1.562   1.469   1.716
    1MIN     Ob 3361   1.475   1.719   1.717
    1MIN    Alo 3362   1.268   0.977   2.053
    1MIN    Alo 3363   1.268   1.277   2.053
    1MIN    Mgo 3364   1.528   1.428   2.053
    1MIN    Alo 3365   1.528   1.728   2.053
    1MIN     Op 3366   1.429   0.953   1.946
    1MIN     Op 3367   1.208   1.126   1.946
    1MIN     Op 3368   1.328   1.128   2.159
    1MIN     Oh 3369   1.106   0.958   2.153
    1MIN    Omg 3370   1.169   1.404   1.946
    1MIN   Ohmg 3371   1.431   1.296   1.953
    1MIN   Ohmg 3372   1.366   1.409   2.153
    1MIN    Omg 3373   1.627   1.301   2.159
    1MIN    Omg 3374   1.468   1.576   1.946
    1MIN   Ohmg 3375   1.690   1.747   1.953
    1MIN    Omg 3376   1.588   1.579   2.159
    1MIN     Op 3377   1.367   1.752   2.159
    1MIN      H 3378   1.060   1.035   2.173
    1MIN      H 3379   1.475   1.222   1.922
    1MIN      H 3380   1.321   1.486   2.177
    1MIN      H 3381   1.732   1.672   1.921
    1MIN    Sit 3382   1.346   1.134   2.323
    1MIN    Sit 3383   1.612   1.288   2.323
    1MIN    Sit 3384   1.605   1.585   2.323
    1MIN    Sit 3385   1.353   1.739   2.323
    1MIN     Ob 3386   1.321   0.985   2.388
    1MIN     Ob 3387   1.235   1.235   2.389
    1MIN     Ob 3388   1.497   1.182   2.368
    1MIN     Ob 3389   1.581   1.436   2.388
    1MIN     Ob 3390   1.494   1.686   2.389
    1MIN     Ob 3391   1.237   1.632   2.368
    1MIN    Sit 3392   1.444   1.867   1.782
    1MIN    Sit 3393   1.191   2.021   1.782
    1MIN    Sit 3394   1.184   2.318   1.782
    1MIN    Sit 3395   1.450   2.472   1.782
    1MIN     Ob 3396   1.559   1.974   1.738
    1MIN     Ob 3397   1.302   1.920   1.716
    1MIN     Ob 3398   1.215   2.170   1.717
    1MIN     Ob 3399   1.300   2.424   1.738
    1MIN     Ob 3400   1.562   2.371   1.716
    1MIN     Ob 3401   1.475   2.621   1.717
    1MIN    Alo 3402   1.268   1.878   2.053
    1MIN    Alo 3403   1.268   2.179   2.053
    1MIN    Mgo 3404   1.528   2.329   2.053
    1MIN    Alo 3405   1.528   2.629   2.053
    1MIN     Op 3406   1.429   1.854   1.946
    1MIN     Op 3407   1.208   2.027   1.946
    1MIN     Op 3408   1.328   2.030   2.159
    1MIN     Oh 3409   1.106   1.860   2.153
    1MIN     Op 3410   1.169   2.305   1.946
    1MIN   Ohmg 3411   1.431   2.197   1.953
    1MIN   Ohmg 3412   1.366   2.310   2.153
    1MIN    Omg 3413   1.627   2.203   2.159
    1MIN    Omg 3414   1.468   2.478   1.946
    1MIN     Oh 3415   1.690   2.648   1.953
    1MIN    Omg 3416   1.588   2.481   2.159
    1MIN    Omg 3417   1.367   2.653   2.159
    1MIN      H 3418   1.061   1.933   2.186
    1MIN      H 3419   1.476   2.122   1.924
    1MIN      H 3420   1.323   2.387   2.180
    1MIN      H 3421   1.732   2.570   1.927
    1MIN    Sit 3422   1.346   2.036   2.323
    1MIN    Sit 3423   1.612   2.190   2.323
    1MIN    Sit 3424   1.605   2.487   2.323
    1MIN    Sit 3425   1.353   2.641   2.323
    1MIN     Ob 3426   1.321   1.887   2.388
    1MIN     Ob 3427   1.235   2.137   2.389
    1MIN     Ob 3428   1.497   2.083   2.368
    1MIN     Ob 3429   1.581   2.337   2.388
    1MIN     Ob 3430   1.494   2.588   2.389
    1MIN     Ob 3431   1.237   2.534   2.368
    1MIN    Sit 3432   1.444   2.769   1.782
    1MIN    Sit 3433   1.191   2.923   1.782
    1MIN    Sit 3434   1.184   3.219   1.782
    1MIN    Sit 3435   1.450   3.373   1.782
    1MIN     Ob 3436   1.559   2.875   1.738
    1MIN     Ob 3437   1.302   2.822   1.716
    1MIN     Ob 3438   1.215   3.072   1.717
    1MIN     Ob 3439   1.300   3.326   1.738
    1MIN     Ob 3440   1.562   3.272   1.716
    1MIN     Ob 3441   1.475   3.523   1.717
    1MIN    Mgo 3442   1.268   2.780   2.053
    1MIN    Alo 3443   1.268   3.080   2.053
    1MIN    Mgo 3444   1.528   3.231   2.053
    1MIN    Alo 3445   1.528   3.531   2.053
    1MIN    Omg 3446   1.429   2.756   1.946
    1MIN    Omg 3447   1.208   2.929   1.946
    1MIN    Omg 3448   1.328   2.931   2.159
    1MIN   Ohmg 3449   1.106   2.761   2.153
    1MIN    Omg 3450   1.169   3.207   1.946
    1MIN   Ohmg 3451   1.431   3.099   1.953
    1MIN   Ohmg 3452   1.366   3.212   2.153
    1MIN    Omg 3453   1.627   3.104   2.159
    1MIN    Omg 3454   1.468   3.379   1.946
    1MIN   Ohmg 3455   1.690   3.550   1.953
    1MIN    Omg 3456   1.588   3.382   2.159
    1MIN     Op 3457   1.367   3.555   2.159
    1MIN      H 3458   1.065   2.838   2.183
    1MIN      H 3459   1.474   3.021   1.933
    1MIN      H 3460   1.322   3.285   2.187
    1MIN      H 3461   1.756   3.485   1.965
    1MIN    Sit 3462   1.346   2.937   2.323
    1MIN    Sit 3463   1.612   3.091   2.323
    1MIN    Sit 3464   1.605   3.388   2.323
    1MIN    Sit 3465   1.353   3.542   2.323
    1MIN     Ob 3466   1.321   2.788   2.388
    1MIN     Ob 3467   1.235   3.038   2.389
    1MIN     Ob 3468   1.497   2.985   2.368
    1MIN     Ob 3469   1.581   3.239   2.388
    1MIN     Ob 3470   1.494   3.489   2.389
    1MIN     Ob 3471   1.237   3.435   2.368
    1MIN    Sit 3472   1.963   0.064   1.782
    1MIN    Sit 3473   1.710   0.218   1.782
    1MIN    Sit 3474   1.703   0.515   1.782
    1MIN    Sit 3475   1.970   0.669   1.782
    1MIN     Ob 3476   2.078   0.171   1.738
    1MIN     Ob 3477   1.821   0.117   1.716
    1MIN     Ob 3478   1.735   0.367   1.717
    1MIN     Ob 3479   1.819   0.621   1.738
    1MIN     Ob 3480   2.081   0.568   1.716
    1MIN     Ob 3481   1.994   0.818   1.717
    1MIN    Mgo 3482   1.788   0.075   2.053
    1MIN    Alo 3483   1.787   0.375   2.053
    1MIN    Mgo 3484   2.047   0.526   2.053
    1MIN    Alo 3485   2.047   0.826   2.053
    1MIN    Omg 3486   1.948   0.051   1.946
    1MIN    Omg 3487   1.728   0.224   1.946
    1MIN    Omg 3488   1.847   0.227   2.159
    1MIN   Ohmg 3489   1.625   0.057   2.153
    1MIN    Omg 3490   1.689   0.502   1.946
    1MIN   Ohmg 3491   1.950   0.394   1.953
    1MIN   Ohmg 3492   1.885   0.507   2.153
    1MIN    Omg 3493   2.146   0.400   2.159
    1MIN    Omg 3494   1.987   0.675   1.946
    1MIN     Oh 3495   2.209   0.845   1.953
    1MIN    Omg 3496   2.107   0.677   2.159
    1MIN    Omg 3497   1.886   0.850   2.159
    1MIN      H 3498   1.572   0.132   2.166
    1MIN      H 3499   1.992   0.317   1.928
    1MIN      H 3500   1.839   0.584   2.174
    1MIN      H 3501   2.250   0.770   1.919
    1MIN    Sit 3502   1.865   0.233   2.323
    1MIN    Sit 3503   2.131   0.387   2.323
    1MIN    Sit 3504   2.125   0.683   2.323
    1MIN    Sit 3505   1.872   0.838   2.323
    1MIN     Ob 3506   1.840   0.084   2.388
    1MIN     Ob 3507   1.754   0.334   2.389
    1MIN     Ob 3508   2.016   0.280   2.368
    1MIN     Ob 3509   2.100   0.534   2.388
    1MIN     Ob 3510   2.013   0.785   2.389
    1MIN     Ob 3511   1.756   0.731   2.368
    1MIN    Sit 3512   1.963   0.965   1.782
    1MIN    Sit 3513   1.710   1.120   1.782
    1MIN    Sit 3514   1.703   1.416   1.782
    1MIN    Sit 3515   1.970   1.570   1.782
    1MIN     Ob 3516   2.078   1.072   1.738
    1MIN     Ob 3517   1.821   1.018   1.716
    1MIN     Ob 3518   1.735   1.269   1.717
    1MIN     Ob 3519   1.819   1.523   1.738
    1MIN     Ob 3520   2.081   1.469   1.716
    1MIN     Ob 3521   1.994   1.719   1.717
    1MIN    Mgo 3522   1.788   0.977   2.053
    1MIN    Alo 3523   1.787   1.277   2.053
    1MIN    Alo 3524   2.047   1.428   2.053
    1MIN    Alo 3525   2.047   1.728   2.053
    1MIN    Omg 3526   1.948   0.953   1.946
    1MIN    Omg 3527   1.728   1.126   1.946
    1MIN    Omg 3528   1.847   1.128   2.159
    1MIN   Ohmg 3529   1.625   0.958   2.153
    1MIN    Omg 3530   1.689   1.404   1.946
    1MIN     Oh 3531   1.950   1.296   1.953
    1MIN     Oh 3532   1.885   1.409   2.153
    1MIN     Op 3533   2.146   1.301   2.159
    1MIN     Op 3534   1.987   1.576   1.946
    1MIN   Ohmg 3535   2.209   1.747   1.953
    1MIN     Op 3536   2.107   1.579   2.159
    1MIN    Omg 3537   1.886   1.752   2.159
    1MIN      H 3538   1.581   1.036   2.172
    1MIN      H 3539   1.990   1.222   1.915
    1MIN      H 3540   1.837   1.486   2.173
    1MIN      H 3541   2.252   1.674   1.915
    1MIN    Sit 3542   1.865   1.134   2.323
    1MIN    Sit 3543   2.131   1.288   2.323
    1MIN    Sit 3544   2.125   1.585   2.323
    1MIN    Sit 3545   1.872   1.739   2.323
    1MIN     Ob 3546   1.840   0.985   2.388
    1MIN     Ob 3547   1.754   1.235   2.389
    1MIN     Ob 3548   2.016   1.182   2.368
    1MIN     Ob 3549   2.100   1.436   2.388
    1MIN     Ob 3550   2.013   1.686   2.389
    1MIN     Ob 3551   1.756   1.632   2.368
    1MIN    Sit 3552   1.963   1.867   1.782
    1MIN    Sit 3553   1.710   2.021   1.782
    1MIN    Sit 3554   1.703   2.318   1.782
    1MIN    Sit 3555   1.970   2.472   1.782
    1MIN     Ob 3556   2.078   1.974   1.738
    1MIN     Ob 3557   1.821   1.920   1.716
    1MIN     Ob 3558   1.735   2.170   1.717
    1MIN     Ob 3559   1.819   2.424   1.738
    1MIN     Ob 3560   2.081   2.371   1.716
    1MIN     Ob 3561   1.994   2.621   1.717
    1MIN    Mgo 3562   1.788   1.878   2.053
    1MIN    Alo 3563   1.787   2.179   2.053
    1MIN    Mgo 3564   2.047   2.329   2.053
    1MIN    Alo 3565   2.047   2.629   2.053
    1MIN    Omg 3566   1.948   1.854   1.946
    1MIN    Omg 3567   1.728   2.027   1.946
    1MIN    Omg 3568   1.847   2.030   2.159
    1MIN   Ohmg 3569   1.625   1.860   2.153
    1MIN    Omg 3570   1.689   2.305   1.946
    1MIN   Ohmg 3571   1.950   2.197   1.953
    1MIN   Ohmg 3572   1.885   2.310   2.153
    1MIN    Omg 3573   2.146   2.203   2.159
    1MIN    Omg 3574   1.987   2.478   1.946
    1MIN     Oh 3575   2.209   2.648   1.953
    1MIN    Omg 3576   2.107   2.481   2.159
    1MIN     Op 3577   1.886   2.653   2.159
    1MIN      H 3578   1.582   1.935   2.183
    1MIN      H 3579   1.992   2.120   1.925
    1MIN      H 3580   1.837   2.386   2.175
    1MIN      H 3581   2.253   2.570   1.931
    1MIN    Sit 3582   1.865   2.036   2.323
    1MIN    Sit 3583   2.131   2.190   2.323
    1MIN    Sit 3584   2.125   2.487   2.323
    1MIN    Sit 3585   1.872   2.641   2.323
    1MIN     Ob 3586   1.840   1.887   2.388
    1MIN     Ob 3587   1.754   2.137   2.389
    1MIN     Ob 3588   2.016   2.083   2.368
    1MIN     Ob 3589   2.100   2.337   2.388
    1MIN     Ob 3590   2.013   2.588   2.389
    1MIN     Ob 3591   1.756   2.534   2.368
    1MIN    Sit 3592   1.963   2.769   1.782
    1MIN    Sit 3593   1.710   2.923   1.782
    1MIN    Sit 3594   1.703   3.219   1.782
    1MIN    Sit 3595   1.970   3.373   1.782
    1MIN     Ob 3596   2.078   2.875   1.738
    1MIN     Ob 3597   1.821   2.822   1.716
    1MIN     Ob 3598   1.735   3.072   1.717
    1MIN     Ob 3599   1.819   3.326   1.738
    1MIN     Ob 3600   2.081   3.272   1.716
    1MIN     Ob 3601   1.994   3.523   1.717
    1MIN    Alo 3602   1.788   2.780   2.053
    1MIN    Alo 3603   1.787   3.080   2.053
    1MIN    Mgo 3604   2.047   3.231   2.053
    1MIN    Alo 3605   2.047   3.531   2.053
    1MIN     Op 3606   1.948   2.756   1.946
    1MIN     Op 3607   1.728   2.929   1.946
    1MIN     Op 3608   1.847   2.931   2.159
    1MIN     Oh 3609   1.625   2.761   2.153
    1MIN    Omg 3610   1.689   3.207   1.946
    1MIN   Ohmg 3611   1.950   3.099   1.953
    1MIN   Ohmg 3612   1.885   3.212   2.153
    1MIN    Omg 3613   2.146   3.104   2.159
    1MIN    Omg 3614   1.987   3.379   1.946
    1MIN     Oh 3615   2.209   3.550   1.953
    1MIN    Omg 3616   2.107   3.382   2.159
    1MIN    Omg 3617   1.886   3.555   2.159
    1MIN      H 3618   1.580   2.836   2.183
    1MIN      H 3619   1.995   3.022   1.931
    1MIN      H 3620   1.841   3.286   2.186
    1MIN      H 3621   2.262   3.473   1.942
    1MIN    Sit 3622   1.865   2.937   2.323
    1MIN    Sit 3623   2.131   3.091   2.323
    1MIN    Sit 3624   2.125   3.388   2.323
    1MIN    Sit 3625   1.872   3.542   2.323
    1MIN     Ob 3626   1.840   2.788   2.388
    1MIN     Ob 3627   1.754   3.038   2.389
    1MIN     Ob 3628   2.016   2.985   2.368
    1MIN     Ob 3629   2.100   3.239   2.388
    1MIN     Ob 3630   2.013   3.489   2.389
    1MIN     Ob 3631   1.756   3.435   2.368
    1MIN    Sit 3632   2.482   0.064   1.782
    1MIN    Sit 3633   2.229   0.218   1.782
    1MIN    Sit 3634   2.222   0.515   1.782
    1MIN    Sit 3635   2.489   0.669   1.782
    1MIN     Ob 3636   2.598   0.171   1.738
    1MIN     Ob 3637   2.340   0.117   1.716
    1MIN     Ob 3638   2.254   0.367   1.717
    1MIN     Ob 3639   2.338   0.621   1.738
    1MIN     Ob 3640   2.600   0.568   1.716
    1MIN     Ob 3641   2.513   0.818   1.717
    1MIN    Alo 3642   2.307   0.075   2.053
    1MIN    Alo 3643   2.307   0.375   2.053
    1MIN    Alo 3644   2.566   0.526   2.053
    1MIN    Alo 3645   2.566   0.826   2.053
    1MIN     Op 3646   2.467   0.051   1.946
    1MIN     Op 3647   2.247   0.224   1.946
    1MIN     Op 3648   2.367   0.227   2.159
    1MIN     Oh 3649   2.144   0.057   2.153
    1MIN    Omg 3650   2.208   0.502   1.946
    1MIN     Oh 3651   2.469   0.394   1.953
    1MIN     Oh 3652   2.404   0.507   2.153
    1MIN     Op 3653   2.665   0.400   2.159
    1MIN     Op 3654   2.506   0.675   1.946
    1MIN   Ohmg 3655   2.729   0.845   1.953
    1MIN     Op 3656   2.626   0.677   2.159
    1MIN     Op 3657   2.406   0.850   2.159
    1MIN      H 3658   2.085   0.128   2.161
    1MIN      H 3659   2.513   0.319   1.923
    1MIN      H 3660   2.359   0.582   2.182
    1MIN      H 3661   2.774   0.771   1.922
    1MIN    Sit 3662   2.384   0.233   2.323
    1MIN    Sit 3663   2.651   0.387   2.323
    1MIN    Sit 3664   2.644   0.683   2.323
    1MIN    Sit 3665   2.391   0.838   2.323
    1MIN     Ob 3666   2.360   0.084   2.388
    1MIN     Ob 3667   2.273   0.334   2.389
    1MIN     Ob 3668   2.535   0.280   2.368
    1MIN     Ob 3669   2.619   0.534   2.388
    1MIN     Ob 3670   2.533   0.785   2.389
    1MIN     Ob 3671   2.275   0.731   2.368
    1MIN    Sit 3672   2.482   0.965   1.782
    1MIN    Sit 3673   2.229   1.120   1.782
    1MIN    Sit 3674   2.222   1.416   1.782
    1MIN    Sit 3675   2.489   1.570   1.782
    1MIN     Ob 3676   2.598   1.072   1.738
    1MIN     Ob 3677   2.340   1.018   1.716
    1MIN     Ob 3678   2.254   1.269   1.717
    1MIN     Ob 3679   2.338   1.523   1.738
    1MIN     Ob 3680   2.600   1.469   1.716
    1MIN     Ob 3681   2.513   1.719   1.717
    1MIN    Alo 3682   2.307   0.977   2.053
    1MIN    Alo 3683   2.307   1.277   2.053
    1MIN    Mgo 3684   2.566   1.428   2.053
    1MIN    Alo 3685   2.566   1.728   2.053
    1MIN     Op 3686   2.467   0.953   1.946
    1MIN     Op 3687   2.247   1.126   1.946
    1MIN     Op 3688   2.367   1.128   2.159
    1MIN     Oh 3689   2.144   0.958   2.153
    1MIN     Op 3690   2.208   1.404   1.946
    1MIN   Ohmg 3691   2.469   1.296   1.953
    1MIN   Ohmg 3692   2.404   1.409   2.153
    1MIN    Omg 3693   2.665   1.301   2.159
    1MIN    Omg 3694   2.506   1.576   1.946
    1MIN     Oh 3695   2.729   1.747   1.953
    1MIN    Omg 3696   2.626   1.579   2.159
    1MIN    Omg 3697   2.406   1.752   2.159
    1MIN      H 3698   2.097   1.034   2.175
    1MIN      H 3699   2.513   1.224   1.916
    1MIN      H 3700   2.360   1.488   2.171
    1MIN      H 3701   2.769   1.672   1.919
    1MIN    Sit 3702   2.384   1.134   2.323
    1MIN    Sit 3703   2.651   1.288   2.323
    1MIN    Sit 3704   2.644   1.585   2.323
    1MIN    Sit 3705   2.391   1.739   2.323
    1MIN     Ob 3706   2.360   0.985   2.388
    1MIN     Ob 3707   2.273   1.235   2.389
    1MIN     Ob 3708   2.535   1.182   2.368
    1MIN     Ob 3709   2.619   1.436   2.388
    1MIN     Ob 3710   2.533   1.686   2.389
    1MIN     Ob 3711   2.275   1.632   2.368
    1MIN    Sit 3712   2.482   1.867   1.782
    1MIN    Sit 3713   2.229   2.021   1.782
    1MIN    Sit 3714   2.222   2.318   1.782
    1MIN    Sit 3715   2.489   2.472   1.782
    1MIN     Ob 3716   2.598   1.974   1.738
    1MIN     Ob 3717   2.340   1.920   1.716
    1MIN     Ob 3718   2.254   2.170   1.717
    1MIN     Ob 3719   2.338   2.424   1.738
    1MIN     Ob 3720   2.600   2.371   1.716
    1MIN     Ob 3721   2.513   2.621   1.717
    1MIN    Mgo 3722   2.307   1.878   2.053
    1MIN    Alo 3723   2.307   2.179   2.053
    1MIN    Mgo 3724   2.566   2.329   2.053
    1MIN    Alo 3725   2.566   2.629   2.053
    1MIN    Omg 3726   2.467   1.854   1.946
    1MIN    Omg 3727   2.247   2.027   1.946
    1MIN    Omg 3728   2.367   2.030   2.159
    1MIN   Ohmg 3729   2.144   1.860   2.153
    1MIN    Omg 3730   2.208   2.305   1.946
    1MIN   Ohmg 3731   2.469   2.197   1.953
    1MIN   Ohmg 3732   2.404   2.310   2.153
    1MIN    Omg 3733   2.665   2.203   2.159
    1MIN    Omg 3734   2.506   2.478   1.946
    1MIN   Ohmg 3735   2.729   2.648   1.953
    1MIN    Omg 3736   2.626   2.481   2.159
    1MIN     Op 3737   2.406   2.653   2.159
    1MIN      H 3738   2.097   1.937   2.168
    1MIN      H 3739   2.511   2.120   1.926
    1MIN      H 3740   2.359   2.387   2.177
    1MIN      H 3741   2.772   2.572   1.926
    1MIN    Sit 3742   2.384   2.036   2.323
    1MIN    Sit 3743   2.651   2.190   2.323
    1MIN    Sit 3744   2.644   2.487   2.323
    1MIN    Sit 3745   2.391   2.641   2.323
    1MIN     Ob 3746   2.360   1.887   2.388
    1MIN     Ob 3747   2.273   2.137   2.389
    1MIN     Ob 3748   2.535   2.083   2.368
    1MIN     Ob 3749   2.619   2.337   2.388
    1MIN     Ob 3750   2.533   2.588   2.389
    1MIN     Ob 3751   2.275   2.534   2.368
    1MIN    Sit 3752   2.482   2.769   1.782
    1MIN    Sit 3753   2.229   2.923   1.782
    1MIN    Sit 3754   2.222   3.219   1.782
    1MIN    Sit 3755   2.489   3.373   1.782
    1MIN     Ob 3756   2.598   2.875   1.738
    1MIN     Ob 3757   2.340   2.822   1.716
    1MIN     Ob 3758   2.254   3.072   1.717
    1MIN     Ob 3759   2.338   3.326   1.738
    1MIN     Ob 3760   2.600   3.272   1.716
    1MIN     Ob 3761   2.513   3.523   1.717
    1MIN    Alo 3762   2.307   2.780   2.053
    1MIN    Alo 3763   2.307   3.080   2.053
    1MIN    Mgo 3764   2.566   3.231   2.053
    1MIN    Alo 3765   2.566   3.531   2.053
    1MIN     Op 3766   2.467   2.756   1.946
    1MIN     Op 3767   2.247   2.929   1.946
    1MIN     Op 3768   2.367   2.931   2.159
    1MIN     Oh 3769   2.144   2.761   2.153
    1MIN    Omg 3770   2.208   3.207   1.946
    1MIN   Ohmg 3771   2.469   3.099   1.953
    1MIN   Ohmg 3772   2.404   3.212   2.153
    1MIN    Omg 3773   2.665   3.104   2.159
    1MIN    Omg 3774   2.506   3.379   1.946
    1MIN   Ohmg 3775   2.729   3.550   1.953
    1MIN    Omg 3776   2.626   3.382   2.159
    1MIN     Op 3777   2.406   3.555   2.159
    1MIN      H 3778   2.102   2.837   2.184
    1MIN      H 3779   2.516   3.023   1.932
    1MIN      H 3780   2.361   3.285   2.187
    1MIN      H 3781   2.793   3.482   1.959
    1MIN    Sit 3782   2.384   2.937   2.323
    1MIN    Sit 3783   2.651   3.091   2.323
    1MIN    Sit 3784   2.644   3.388   2.323
    1MIN    Sit 3785   2.391   3.542   2.323
    1MIN     Ob 3786   2.360   2.788   2.388
    1MIN     Ob 3787   2.273   3.038   2.389
    1MIN     Ob 3788   2.535   2.985   2.368
    1MIN     Ob 3789   2.619   3.239   2.388
    1MIN     Ob 3790   2.533   3.489   2.389
    1MIN     Ob 3791   2.275   3.435   2.368
    1MIN    Sit 3792   3.001   0.064   1.782
    1MIN    Sit 3793   2.748   0.218   1.782
    1MIN    Sit 3794   2.742   0.515   1.782
    1MIN    Sit 3795   3.008   0.669   1.782
    1MIN     Ob 3796   3.117   0.171   1.738
    1MIN     Ob 3797   2.860   0.117   1.716
    1MIN     Ob 3798   2.773   0.367   1.717
    1MIN     Ob 3799   2.857   0.621   1.738
    1MIN     Ob 3800   3.119   0.568   1.716
    1MIN     Ob 3801   3.033   0.818   1.717
    1MIN    Mgo 3802   2.826   0.075   2.053
    1MIN    Alo 3803   2.826   0.375   2.053
    1MIN    Mgo 3804   3.086   0.526   2.053
    1MIN    Alo 3805   3.085   0.826   2.053
    1MIN    Omg 3806   2.987   0.051   1.946
    1MIN    Omg 3807   2.766   0.224   1.946
    1MIN    Omg 3808   2.886   0.227   2.159
    1MIN   Ohmg 3809   2.663   0.057   2.153
    1MIN     Op 3810   2.727   0.502   1.946
    1MIN   Ohmg 3811   2.988   0.394   1.953
    1MIN   Ohmg 3812   2.923   0.507   2.153
    1MIN    Omg 3813   3.184   0.400   2.159
    1MIN    Omg 3814   3.026   0.675   1.946
    1MIN   Ohmg 3815   3.248   0.845   1.953
    1MIN    Omg 3816   3.145   0.677   2.159
    1MIN    Omg 3817   2.925   0.850   2.159
    1MIN      H 3818   2.620   0.132   2.184
    1MIN      H 3819   3.033   0.316   1.932
    1MIN      H 3820   2.881   0.583   2.184
    1MIN      H 3821   3.303   0.771   1.944
    1MIN    Sit 3822   2.903   0.233   2.323
    1MIN    Sit 3823   3.170   0.387   2.323
    1MIN    Sit 3824   3.163   0.683   2.323
    1MIN    Sit 3825   2.910   0.838   2.323
    1MIN     Ob 3826   2.879   0.084   2.388
    1MIN     Ob 3827   2.792   0.334   2.389
    1MIN     Ob 3828   3.054   0.280   2.368
    1MIN     Ob 3829   3.138   0.534   2.388
    1MIN     Ob 3830   3.052   0.785   2.389
    1MIN     Ob 3831   2.794   0.731   2.368
    1MIN    Sit 3832   3.001   0.965   1.782
    1MIN    Sit 3833   2.748   1.120   1.782
    1MIN    Sit 3834   2.742   1.416   1.782
    1MIN    Sit 3835   3.008   1.570   1.782
    1MIN     Ob 3836   3.117   1.072   1.738
    1MIN     Ob 3837   2.860   1.018   1.716
    1MIN     Ob 3838   2.773   1.269   1.717
    1MIN     Ob 3839   2.857   1.523   1.738
    1MIN     Ob 3840   3.119   1.469   1.716
    1MIN     Ob 3841   3.033   1.719   1.717
    1MIN    Mgo 3842   2.826   0.977   2.053
    1MIN    Alo 3843   2.826   1.277   2.053
    1MIN    Alo 3844   3.086   1.428   2.053
    1MIN    Alo 3845   3.085   1.728   2.053
    1MIN    Omg 3846   2.987   0.953   1.946
    1MIN    Omg 3847   2.766   1.126   1.946
    1MIN    Omg 3848   2.886   1.128   2.159
    1MIN   Ohmg 3849   2.663   0.958   2.153
    1MIN    Omg 3850   2.727   1.404   1.946
    1MIN     Oh 3851   2.988   1.296   1.953
    1MIN     Oh 3852   2.923   1.409   2.153
    1MIN     Op 3853   3.184   1.301   2.159
    1MIN     Op 3854   3.026   1.576   1.946
    1MIN   Ohmg 3855   3.248   1.747   1.953
    1MIN     Op 3856   3.145   1.579   2.159
    1MIN     Op 3857   2.925   1.752   2.159
    1MIN      H 3858   2.620   1.036   2.174
    1MIN      H 3859   3.030   1.221   1.920
    1MIN      H 3860   2.877   1.485   2.175
    1MIN      H 3861   3.313   1.680   1.950
    1MIN    Sit 3862   2.903   1.134   2.323
    1MIN    Sit 3863   3.170   1.288   2.323
    1MIN    Sit 3864   3.163   1.585   2.323
    1MIN    Sit 3865   2.910   1.739   2.323
    1MIN     Ob 3866   2.879   0.985   2.388
    1MIN     Ob 3867   2.792   1.235   2.389
    1MIN     Ob 3868   3.054   1.182   2.368
    1MIN     Ob 3869   3.138   1.436   2.388
    1MIN     Ob 3870   3.052   1.686   2.389
    1MIN     Ob 3871   2.794   1.632   2.368
    1MIN    Sit 3872   3.001   1.867   1.782
    1MIN    Sit 3873   2.748   2.021   1.782
    1MIN    Sit 3874   2.742   2.318   1.782
    1MIN    Sit 3875   3.008   2.472   1.782
    1MIN     Ob 3876   3.117   1.974   1.738
    1MIN     Ob 3877   2.860   1.920   1.716
    1MIN     Ob 3878   2.773   2.170   1.717
    1MIN     Ob 3879   2.857   2.424   1.738
    1MIN     Ob 3880   3.119   2.371   1.716
    1MIN     Ob 3881   3.033   2.621   1.717
    1MIN    Alo 3882   2.826   1.878   2.053
    1MIN    Alo 3883   2.826   2.179   2.053
    1MIN    Alo 3884   3.086   2.329   2.053
    1MIN    Alo 3885   3.085   2.629   2.053
    1MIN     Op 3886   2.987   1.854   1.946
    1MIN     Op 3887   2.766   2.027   1.946
    1MIN     Op 3888   2.886   2.030   2.159
    1MIN     Oh 3889   2.663   1.860   2.153
    1MIN    Omg 3890   2.727   2.305   1.946
    1MIN     Oh 3891   2.988   2.197   1.953
    1MIN     Oh 3892   2.923   2.310   2.153
    1MIN     Op 3893   3.184   2.203   2.159
    1MIN     Op 3894   3.026   2.478   1.946
    1MIN   Ohmg 3895   3.248   2.648   1.953
    1MIN     Op 3896   3.145   2.481   2.159
    1MIN    Omg 3897   2.925   2.653   2.159
    1MIN      H 3898   2.618   1.936   2.177
    1MIN      H 3899   3.032   2.123   1.921
    1MIN      H 3900   2.878   2.386   2.181
    1MIN      H 3901   3.311   2.580   1.952
    1MIN    Sit 3902   2.903   2.036   2.323
    1MIN    Sit 3903   3.170   2.190   2.323
    1MIN    Sit 3904   3.163   2.487   2.323
    1MIN    Sit 3905   2.910   2.641   2.323
    1MIN     Ob 3906   2.879   1.887   2.388
    1MIN     Ob 3907   2.792   2.137   2.389
    1MIN     Ob 3908   3.054   2.083   2.368
    1MIN     Ob 3909   3.138   2.337   2.388
    1MIN     Ob 3910   3.052   2.588   2.389
    1MIN     Ob 3911   2.794   2.534   2.368
    1MIN    Sit 3912   3.001   2.769   1.782
    1MIN    Sit 3913   2.748   2.923   1.782
    1MIN    Sit 3914   2.742   3.219   1.782
    1MIN    Sit 3915   3.008   3.373   1.782
    1MIN     Ob 3916   3.117   2.875   1.738
    1MIN     Ob 3917   2.860   2.822   1.716
    1MIN     Ob 3918   2.773   3.072   1.717
    1MIN     Ob 3919   2.857   3.326   1.738
    1MIN     Ob 3920   3.119   3.272   1.716
    1MIN     Ob 3921   3.033   3.523   1.717
    1MIN    Mgo 3922   2.826   2.780   2.053
    1MIN    Alo 3923   2.826   3.080   2.053
    1MIN    Mgo 3924   3.086   3.231   2.053
    1MIN    Alo 3925   3.085   3.531   2.053
    1MIN    Omg 3926   2.987   2.756   1.946
    1MIN    Omg 3927   2.766   2.929   1.946
    1MIN    Omg 3928   2.886   2.931   2.159
    1MIN   Ohmg 3929   2.663   2.761   2.153
    1MIN    Omg 3930   2.727   3.207   1.946
    1MIN   Ohmg 3931   2.988   3.099   1.953
    1MIN   Ohmg 3932   2.923   3.212   2.153
    1MIN    Omg 3933   3.184   3.104   2.159
    1MIN    Omg 3934   3.026   3.379   1.946
    1MIN   Ohmg 3935   3.248   3.550   1.953
    1MIN    Omg 3936   3.145   3.382   2.159
    1MIN    Omg 3937   2.925   3.555   2.159
    1MIN      H 3938   2.621   2.837   2.184
    1MIN      H 3939   3.033   3.021   1.932
    1MIN      H 3940   2.878   3.288   2.178
    1MIN      H 3941   3.314   3.485   1.965
    1MIN    Sit 3942   2.903   2.937   2.323
    1MIN    Sit 3943   3.170   3.091   2.323
    1MIN    Sit 3944   3.163   3.388   2.323
    1MIN    Sit 3945   2.910   3.542   2.323
    1MIN     Ob 3946   2.879   2.788   2.388
    1MIN     Ob 3947   2.792   3.038   2.389
    1MIN     Ob 3948   3.054   2.985   2.368
    1MIN     Ob 3949   3.138   3.239   2.388
    1MIN     Ob 3950   3.052   3.489   2.389
    1MIN     Ob 3951   2.794   3.435   2.368
    1MIN    Sit 3952   0.305   0.064   2.780
    1MIN    Sit 3953   0.052   0.218   2.780
    1MIN    Sit 3954   0.046   0.515   2.780
    1MIN    Sit 3955   0.312   0.669   2.780
    1MIN     Ob 3956   0.421   0.171   2.735
    1MIN     Ob 3957   0.163   0.117   2.714
    1MIN     Ob 3958   0.077   0.367   2.714
    1MIN     Ob 3959   0.161   0.621   2.735
    1MIN     Ob 3960   0.423   0.568   2.714
    1MIN     Ob 3961   0.337   0.818   2.714
    1MIN    Mgo 3962   0.130   0.075   3.050
    1MIN    Alo 3963   0.130   0.375   3.050
    1MIN    Mgo 3964   0.389   0.526   3.050
    1MIN    Alo 3965   0.389   0.826   3.050
    1MIN    Omg 3966   0.291   0.051   2.943
    1MIN    Omg 3967   0.070   0.224   2.943
    1MIN    Omg 3968   0.190   0.227   3.157
    1MIN   Ohmg 3969  -0.033   0.057   3.150
    1MIN     Op 3970   0.031   0.502   2.943
    1MIN   Ohmg 3971   0.292   0.394   2.950
    1MIN   Ohmg 3972   0.227   0.507   3.150
    1MIN    Omg 3973   0.488   0.400   3.157
    1MIN    Omg 3974   0.330   0.675   2.943
    1MIN     Oh 3975   0.552   0.845   2.950
    1MIN    Omg 3976   0.449   0.677   3.157
    1MIN     Op 3977   0.229   0.850   3.157
    1MIN      H 3978  -0.102   0.117   3.134
    1MIN      H 3979   0.335   0.320   2.917
    1MIN      H 3980   0.184   0.585   3.170
    1MIN      H 3981   0.596   0.767   2.926
    1MIN    Sit 3982   0.207   0.233   3.320
    1MIN    Sit 3983   0.474   0.387   3.320
    1MIN    Sit 3984   0.467   0.683   3.320
    1MIN    Sit 3985   0.214   0.838   3.320
    1MIN     Ob 3986   0.183   0.084   3.386
    1MIN     Ob 3987   0.096   0.334   3.386
    1MIN     Ob 3988   0.358   0.280   3.365
    1MIN     Ob 3989   0.442   0.534   3.386
    1MIN     Ob 3990   0.356   0.785   3.386
    1MIN     Ob 3991   0.098   0.731   3.365
    1MIN    Sit 3992   0.305   0.965   2.780
    1MIN    Sit 3993   0.052   1.120   2.780
    1MIN    Sit 3994   0.046   1.416   2.780
    1MIN    Sit 3995   0.312   1.570   2.780
    1MIN     Ob 3996   0.421   1.072   2.735
    1MIN     Ob 3997   0.163   1.018   2.714
    1MIN     Ob 3998   0.077   1.269   2.714
    1MIN     Ob 3999   0.161   1.523   2.735
    1MIN     Ob 4000   0.423   1.469   2.714
    1MIN     Ob 4001   0.337   1.719   2.714
    1MIN    Alo 4002   0.130   0.977   3.050
    1MIN    Alo 4003   0.130   1.277   3.050
    1MIN    Mgo 4004   0.389   1.428   3.050
    1MIN    Alo 4005   0.389   1.728   3.050
    1MIN     Op 4006   0.291   0.953   2.943
    1MIN     Op 4007   0.070   1.126   2.943
    1MIN     Op 4008   0.190   1.128   3.157
    1MIN     Oh 4009  -0.033   0.958   3.150
    1MIN    Omg 4010   0.031   1.404   2.943
    1MIN   Ohmg 4011   0.292   1.296   2.950
    1MIN   Ohmg 4012   0.227   1.409   3.150
    1MIN    Omg 4013   0.488   1.301   3.157
    1MIN    Omg 4014   0.330   1.576   2.943
    1MIN   Ohmg 4015   0.552   1.747   2.950
    1MIN    Omg 4016   0.449   1.579   3.157
    1MIN    Omg 4017   0.229   1.752   3.157
    1MIN      H 4018  -0.089   1.032   3.161
    1MIN      H 4019   0.337   1.221   2.922
    1MIN      H 4020   0.183   1.486   3.171
    1MIN      H 4021   0.597   1.669   2.928
    1MIN    Sit 4022   0.207   1.134   3.320
    1MIN    Sit 4023   0.474   1.288   3.320
    1MIN    Sit 4024   0.467   1.585   3.320
    1MIN    Sit 4025   0.214   1.739   3.320
    1MIN     Ob 4026   0.183   0.985   3.386
    1MIN     Ob 4027   0.096   1.235   3.386
    1MIN     Ob 4028   0.358   1.182   3.365
    1MIN     Ob 4029   0.442   1.436   3.386
    1MIN     Ob 4030   0.356   1.686   3.386
    1MIN     Ob 4031   0.098   1.632   3.365
    1MIN    Sit 4032   0.305   1.867   2.780
    1MIN    Sit 4033   0.052   2.021   2.780
    1MIN    Sit 4034   0.046   2.318   2.780
    1MIN    Sit 4035   0.312   2.472   2.780
    1MIN     Ob 4036   0.421   1.974   2.735
    1MIN     Ob 4037   0.163   1.920   2.714
    1MIN     Ob 4038   0.077   2.170   2.714
    1MIN     Ob 4039   0.161   2.424   2.735
    1MIN     Ob 4040   0.423   2.371   2.714
    1MIN     Ob 4041   0.337   2.621   2.714
    1MIN    Mgo 4042   0.130   1.878   3.050
    1MIN    Alo 4043   0.130   2.179   3.050
    1MIN    Mgo 4044   0.389   2.329   3.050
    1MIN    Alo 4045   0.389   2.629   3.050
    1MIN    Omg 4046   0.291   1.854   2.943
    1MIN    Omg 4047   0.070   2.027   2.943
    1MIN    Omg 4048   0.190   2.030   3.157
    1MIN   Ohmg 4049  -0.033   1.860   3.150
    1MIN     Op 4050   0.031   2.305   2.943
    1MIN   Ohmg 4051   0.292   2.197   2.950
    1MIN   Ohmg 4052   0.227   2.310   3.150
    1MIN    Omg 4053   0.488   2.203   3.157
    1MIN    Omg 4054   0.330   2.478   2.943
    1MIN     Oh 4055   0.552   2.648   2.950
    1MIN    Omg 4056   0.449   2.481   3.157
    1MIN    Omg 4057   0.229   2.653   3.157
    1MIN      H 4058  -0.094   1.929   3.145
    1MIN      H 4059   0.335   2.121   2.921
    1MIN      H 4060   0.183   2.389   3.165
    1MIN      H 4061   0.595   2.572   2.921
    1MIN    Sit 4062   0.207   2.036   3.320
    1MIN    Sit 4063   0.474   2.190   3.320
    1MIN    Sit 4064   0.467   2.487   3.320
    1MIN    Sit 4065   0.214   2.641   3.320
    1MIN     Ob 4066   0.183   1.887   3.386
    1MIN     Ob 4067   0.096   2.137   3.386
    1MIN     Ob 4068   0.358   2.083   3.365
    1MIN     Ob 4069   0.442   2.337   3.386
    1MIN     Ob 4070   0.356   2.588   3.386
    1MIN     Ob 4071   0.098   2.534   3.365
    1MIN    Sit 4072   0.305   2.769   2.780
    1MIN    Sit 4073   0.052   2.923   2.780
    1MIN    Sit 4074   0.046   3.219   2.780
    1MIN    Sit 4075   0.312   3.373   2.780
    1MIN     Ob 4076   0.421   2.875   2.735
    1MIN     Ob 4077   0.163   2.822   2.714
    1MIN     Ob 4078   0.077   3.072   2.714
    1MIN     Ob 4079   0.161   3.326   2.735
    1MIN     Ob 4080   0.423   3.272   2.714
    1MIN     Ob 4081   0.337   3.523   2.714
    1MIN    Mgo 4082   0.130   2.780   3.050
    1MIN    Alo 4083   0.130   3.080   3.050
    1MIN    Alo 4084   0.389   3.231   3.050
    1MIN    Alo 4085   0.389   3.531   3.050
    1MIN    Omg 4086   0.291   2.756   2.943
    1MIN    Omg 4087   0.070   2.929   2.943
    1MIN    Omg 4088   0.190   2.931   3.157
    1MIN   Ohmg 4089  -0.033   2.761   3.150
    1MIN    Omg 4090   0.031   3.207   2.943
    1MIN     Oh 4091   0.292   3.099   2.950
    1MIN     Oh 4092   0.227   3.212   3.150
    1MIN     Op 4093   0.488   3.104   3.157
    1MIN     Op 4094   0.330   3.379   2.943
    1MIN     Oh 4095   0.552   3.550   2.950
    1MIN     Op 4096   0.449   3.382   3.157
    1MIN    Omg 4097   0.229   3.555   3.157
    1MIN      H 4098  -0.098   2.828   3.139
    1MIN      H 4099   0.332   3.027   2.909
    1MIN      H 4100   0.181   3.289   3.169
    1MIN      H 4101   0.597   3.475   2.918
    1MIN    Sit 4102   0.207   2.937   3.320
    1MIN    Sit 4103   0.474   3.091   3.320
    1MIN    Sit 4104   0.467   3.388   3.320
    1MIN    Sit 4105   0.214   3.542   3.320
    1MIN     Ob 4106   0.183   2.788   3.386
    1MIN     Ob 4107   0.096   3.038   3.386
    1MIN     Ob 4108   0.358   2.985   3.365
    1MIN     Ob 4109   0.442   3.239   3.386
    1MIN     Ob 4110   0.356   3.489   3.386
    1MIN     Ob 4111   0.098   3.435   3.365
    1MIN    Sit 4112   0.824   0.064   2.780
    1MIN    Sit 4113   0.571   0.218   2.780
    1MIN    Sit 4114   0.565   0.515   2.780
    1MIN    Sit 4115   0.831   0.669   2.780
    1MIN     Ob 4116   0.940   0.171   2.735
    1MIN     Ob 4117   0.683   0.117   2.714
    1MIN     Ob 4118   0.596   0.367   2.714
    1MIN     Ob 4119   0.680   0.621   2.735
    1MIN     Ob 4120   0.942   0.568   2.714
    1MIN     Ob 4121   0.856   0.818   2.714
    1MIN    Alo 4122   0.649   0.075   3.050
    1MIN    Alo 4123   0.649   0.375   3.050
    1MIN    Mgo 4124   0.909   0.526   3.050
    1MIN    Alo 4125   0.908   0.826   3.050
    1MIN     Op 4126   0.810   0.051   2.943
    1MIN     Op 4127   0.589   0.224   2.943
    1MIN     Op 4128   0.709   0.227   3.157
    1MIN     Oh 4129   0.487   0.057   3.150
    1MIN    Omg 4130   0.550   0.502   2.943
    1MIN   Ohmg 4131   0.811   0.394   2.950
    1MIN   Ohmg 4132   0.746   0.507   3.150
    1MIN    Omg 4133   1.007   0.400   3.157
    1MIN    Omg 4134   0.849   0.675   2.943
    1MIN     Oh 4135   1.071   0.845   2.950
    1MIN    Omg 4136   0.968   0.677   3.157
    1MIN     Op 4137   0.748   0.850   3.157
    1MIN      H 4138   0.432   0.131   3.160
    1MIN      H 4139   0.857   0.318   2.926
    1MIN      H 4140   0.704   0.581   3.184
    1MIN      H 4141   1.114   0.767   2.927
    1MIN    Sit 4142   0.726   0.233   3.320
    1MIN    Sit 4143   0.993   0.387   3.320
    1MIN    Sit 4144   0.986   0.683   3.320
    1MIN    Sit 4145   0.733   0.838   3.320
    1MIN     Ob 4146   0.702   0.084   3.386
    1MIN     Ob 4147   0.615   0.334   3.386
    1MIN     Ob 4148   0.877   0.280   3.365
    1MIN     Ob 4149   0.961   0.534   3.386
    1MIN     Ob 4150   0.875   0.785   3.386
    1MIN     Ob 4151   0.618   0.731   3.365
    1MIN    Sit 4152   0.824   0.965   2.780
    1MIN    Sit 4153   0.571   1.120   2.780
    1MIN    Sit 4154   0.565   1.416   2.780
    1MIN    Sit 4155   0.831   1.570   2.780
    1MIN     Ob 4156   0.940   1.072   2.735
    1MIN     Ob 4157   0.683   1.018   2.714
    1MIN     Ob 4158   0.596   1.269   2.714
    1MIN     Ob 4159   0.680   1.523   2.735
    1MIN     Ob 4160   0.942   1.469   2.714
    1MIN     Ob 4161   0.856   1.719   2.714
    1MIN    Alo 4162   0.649   0.977   3.050
    1MIN    Alo 4163   0.649   1.277   3.050
    1MIN    Mgo 4164   0.909   1.428   3.050
    1MIN    Alo 4165   0.908   1.728   3.050
    1MIN     Op 4166   0.810   0.953   2.943
    1MIN     Op 4167   0.589   1.126   2.943
    1MIN     Op 4168   0.709   1.128   3.157
    1MIN     Oh 4169   0.487   0.958   3.150
    1MIN    Omg 4170   0.550   1.404   2.943
    1MIN   Ohmg 4171   0.811   1.296   2.950
    1MIN   Ohmg 4172   0.746   1.409   3.150
    1MIN    Omg 4173   1.007   1.301   3.157
    1MIN    Omg 4174   0.849   1.576   2.943
    1MIN   Ohmg 4175   1.071   1.747   2.950
    1MIN    Omg 4176   0.968   1.579   3.157
    1MIN    Omg 4177   0.748   1.752   3.157
    1MIN      H 4178   0.447   1.032   3.188
    1MIN      H 4179   0.858   1.219   2.931
    1MIN      H 4180   0.704   1.483   3.183
    1MIN      H 4181   1.116   1.670   2.926
    1MIN    Sit 4182   0.726   1.134   3.320
    1MIN    Sit 4183   0.993   1.288   3.320
    1MIN    Sit 4184   0.986   1.585   3.320
    1MIN    Sit 4185   0.733   1.739   3.320
    1MIN     Ob 4186   0.702   0.985   3.386
    1MIN     Ob 4187   0.615   1.235   3.386
    1MIN     Ob 4188   0.877   1.182   3.365
    1MIN     Ob 4189   0.961   1.436   3.386
    1MIN     Ob 4190   0.875   1.686   3.386
    1MIN     Ob 4191   0.618   1.632   3.365
    1MIN    Sit 4192   0.824   1.867   2.780
    1MIN    Sit 4193   0.571   2.021   2.780
    1MIN    Sit 4194   0.565   2.318   2.780
    1MIN    Sit 4195   0.831   2.472   2.780
    1MIN     Ob 4196   0.940   1.974   2.735
    1MIN     Ob 4197   0.683   1.920   2.714
    1MIN     Ob 4198   0.596   2.170   2.714
    1MIN     Ob 4199   0.680   2.424   2.735
    1MIN     Ob 4200   0.942   2.371   2.714
    1MIN     Ob 4201   0.856   2.621   2.714
    1MIN    Mgo 4202   0.649   1.878   3.050
    1MIN    Alo 4203   0.649   2.179   3.050
    1MIN    Mgo 4204   0.909   2.329   3.050
    1MIN    Alo 4205   0.908   2.629   3.050
    1MIN    Omg 4206   0.810   1.854   2.943
    1MIN    Omg 4207   0.589   2.027   2.943
    1MIN    Omg 4208   0.709   2.030   3.157
    1MIN   Ohmg 4209   0.487   1.860   3.150
    1MIN    Omg 4210   0.550   2.305   2.943
    1MIN   Ohmg 4211   0.811   2.197   2.950
    1MIN   Ohmg 4212   0.746   2.310   3.150
    1MIN    Omg 4213   1.007   2.203   3.157
    1MIN    Omg 4214   0.849   2.478   2.943
    1MIN     Oh 4215   1.071   2.648   2.950
    1MIN    Omg 4216   0.968   2.481   3.157
    1MIN     Op 4217   0.748   2.653   3.157
    1MIN      H 4218   0.441   1.937   3.166
    1MIN      H 4219   0.855   2.121   2.920
    1MIN      H 4220   0.700   2.388   3.166
    1MIN      H 4221   1.112   2.574   2.914
    1MIN    Sit 4222   0.726   2.036   3.320
    1MIN    Sit 4223   0.993   2.190   3.320
    1MIN    Sit 4224   0.986   2.487   3.320
    1MIN    Sit 4225   0.733   2.641   3.320
    1MIN     Ob 4226   0.702   1.887   3.386
    1MIN     Ob 4227   0.615   2.137   3.386
    1MIN     Ob 4228   0.877   2.083   3.365
    1MIN     Ob 4229   0.961   2.337   3.386
    1MIN     Ob 4230   0.875   2.588   3.386
    1MIN     Ob 4231   0.618   2.534   3.365
    1MIN    Sit 4232   0.824   2.769   2.780
    1MIN    Sit 4233   0.571   2.923   2.780
    1MIN    Sit 4234   0.565   3.219   2.780
    1MIN    Sit 4235   0.831   3.373   2.780
    1MIN     Ob 4236   0.940   2.875   2.735
    1MIN     Ob 4237   0.683   2.822   2.714
    1MIN     Ob 4238   0.596   3.072   2.714
    1MIN     Ob 4239   0.680   3.326   2.735
    1MIN     Ob 4240   0.942   3.272   2.714
    1MIN     Ob 4241   0.856   3.523   2.714
    1MIN    Alo 4242   0.649   2.780   3.050
    1MIN    Alo 4243   0.649   3.080   3.050
    1MIN    Mgo 4244   0.909   3.231   3.050
    1MIN    Alo 4245   0.908   3.531   3.050
    1MIN     Op 4246   0.810   2.756   2.943
    1MIN     Op 4247   0.589   2.929   2.943
    1MIN     Op 4248   0.709   2.931   3.157
    1MIN     Oh 4249   0.487   2.761   3.150
    1MIN     Op 4250   0.550   3.207   2.943
    1MIN   Ohmg 4251   0.811   3.099   2.950
    1MIN   Ohmg 4252   0.746   3.212   3.150
    1MIN    Omg 4253   1.007   3.104   3.157
    1MIN    Omg 4254   0.849   3.379   2.943
    1MIN   Ohmg 4255   1.071   3.550   2.950
    1MIN    Omg 4256   0.968   3.382   3.157
    1MIN     Op 4257   0.748   3.555   3.157
    1MIN      H 4258   0.441   2.837   3.172
    1MIN      H 4259   0.855   3.028   2.912
    1MIN      H 4260   0.705   3.289   3.178
    1MIN      H 4261   1.126   3.476   2.937
    1MIN    Sit 4262   0.726   2.937   3.320
    1MIN    Sit 4263   0.993   3.091   3.320
    1MIN    Sit 4264   0.986   3.388   3.320
    1MIN    Sit 4265   0.733   3.542   3.320
    1MIN     Ob 4266   0.702   2.788   3.386
    1MIN     Ob 4267   0.615   3.038   3.386
    1MIN     Ob 4268   0.877   2.985   3.365
    1MIN     Ob 4269   0.961   3.239   3.386
    1MIN     Ob 4270   0.875   3.489   3.386
    1MIN     Ob 4271   0.618   3.435   3.365
    1MIN    Sit 4272   1.343   0.064   2.780
    1MIN    Sit 4273   1.091   0.218   2.780
    1MIN    Sit 4274   1.084   0.515   2.780
    1MIN    Sit 4275   1.350   0.669   2.780
    1MIN     Ob 4276   1.459   0.171   2.735
    1MIN     Ob 4277   1.202   0.117   2.714
    1MIN     Ob 4278   1.115   0.367   2.714
    1MIN     Ob 4279   1.200   0.621   2.735
    1MIN     Ob 4280   1.461   0.568   2.714
    1MIN     Ob 4281   1.375   0.818   2.714
    1MIN    Mgo 4282   1.168   0.075   3.050
    1MIN    Alo 4283   1.168   0.375   3.050
    1MIN    Alo 4284   1.428   0.526   3.050
    1MIN    Alo 4285   1.428   0.826   3.050
    1MIN    Omg 4286   1.329   0.051   2.943
    1MIN    Omg 4287   1.108   0.224   2.943
    1MIN    Omg 4288   1.228   0.227   3.157
    1MIN   Ohmg 4289   1.006   0.057   3.150
    1MIN    Omg 4290   1.069   0.502   2.943
    1MIN     Oh 4291   1.331   0.394   2.950
    1MIN     Oh 4292   1.265   0.507   3.150
    1MIN     Op 4293   1.527   0.400   3.157
    1MIN     Op 4294   1.368   0.675   2.943
    1MIN   Ohmg 4295   1.590   0.845   2.950
    1MIN     Op 4296   1.488   0.677   3.157
    1MIN     Op 4297   1.267   0.850   3.157
    1MIN      H 4298   0.963   0.134   3.178
    1MIN      H 4299   1.373   0.316   2.928
    1MIN      H 4300   1.222   0.579   3.189
    1MIN      H 4301   1.637   0.769   2.929
    1MIN    Sit 4302   1.246   0.233   3.320
    1MIN    Sit 4303   1.512   0.387   3.320
    1MIN    Sit 4304   1.505   0.683   3.320
    1MIN    Sit 4305   1.252   0.838   3.320
    1MIN     Ob 4306   1.221   0.084   3.386
    1MIN     Ob 4307   1.134   0.334   3.386
    1MIN     Ob 4308   1.396   0.280   3.365
    1MIN     Ob 4309   1.481   0.534   3.386
    1MIN     Ob 4310   1.394   0.785   3.386
    1MIN     Ob 4311   1.137   0.731   3.365
    1MIN    Sit 4312   1.343   0.965   2.780
    1MIN    Sit 4313   1.091   1.120   2.780
    1MIN    Sit 4314   1.084   1.416   2.780
    1MIN    Sit 4315   1.350   1.570   2.780
    1MIN     Ob 4316   1.459   1.072   2.735
    1MIN     Ob 4317   1.202   1.018   2.714
    1MIN     Ob 4318   1.115   1.269   2.714
    1MIN     Ob 4319   1.200   1.523   2.735
    1MIN     Ob 4320   1.461   1.469   2.714
    1MIN     Ob 4321   1.375   1.719   2.714
    1MIN    Alo 4322   1.168   0.977   3.050
    1MIN    Alo 4323   1.168   1.277   3.050
    1MIN    Mgo 4324   1.428   1.428   3.050
    1MIN    Alo 4325   1.428   1.728   3.050
    1MIN     Op 4326   1.329   0.953   2.943
    1MIN     Op 4327   1.108   1.126   2.943
    1MIN     Op 4328   1.228   1.128   3.157
    1MIN     Oh 4329   1.006   0.958   3.150
    1MIN    Omg 4330   1.069   1.404   2.943
    1MIN   Ohmg 4331   1.331   1.296   2.950
    1MIN   Ohmg 4332   1.265   1.409   3.150
    1MIN    Omg 4333   1.527   1.301   3.157
    1MIN    Omg 4334   1.368   1.576   2.943
    1MIN   Ohmg 4335   1.590   1.747   2.950
    1MIN    Omg 4336   1.488   1.579   3.157
    1MIN    Omg 4337   1.267   1.752   3.157
    1MIN      H 4338   0.967   1.029   3.194
    1MIN      H 4339   1.378   1.219   2.932
    1MIN      H 4340   1.223   1.483   3.184
    1MIN      H 4341   1.632   1.669   2.925
    1MIN    Sit 4342   1.246   1.134   3.320
    1MIN    Sit 4343   1.512   1.288   3.320
    1MIN    Sit 4344   1.505   1.585   3.320
    1MIN    Sit 4345   1.252   1.739   3.320
    1MIN     Ob 4346   1.221   0.985   3.386
    1MIN     Ob 4347   1.134   1.235   3.386
    1MIN     Ob 4348   1.396   1.182   3.365
    1MIN     Ob 4349   1.481   1.436   3.386
    1MIN     Ob 4350   1.394   1.686   3.386
    1MIN     Ob 4351   1.137   1.632   3.365
    1MIN    Sit 4352   1.343   1.867   2.780
    1MIN    Sit 4353   1.091   2.021   2.780
    1MIN    Sit 4354   1.084   2.318   2.780
    1MIN    Sit 4355   1.350   2.472   2.780
    1MIN     Ob 4356   1.459   1.974   2.735
    1MIN     Ob 4357   1.202   1.920   2.714
    1MIN     Ob 4358   1.115   2.170   2.714
    1MIN     Ob 4359   1.200   2.424   2.735
    1MIN     Ob 4360   1.461   2.371   2.714
    1MIN     Ob 4361   1.375   2.621   2.714
    1MIN    Mgo 4362   1.168   1.878   3.050
    1MIN    Alo 4363   1.168   2.179   3.050
    1MIN    Alo 4364   1.428   2.329   3.050
    1MIN    Alo 4365   1.428   2.629   3.050
    1MIN    Omg 4366   1.329   1.854   2.943
    1MIN    Omg 4367   1.108   2.027   2.943
    1MIN    Omg 4368   1.228   2.030   3.157
    1MIN   Ohmg 4369   1.006   1.860   3.150
    1MIN    Omg 4370   1.069   2.305   2.943
    1MIN     Oh 4371   1.331   2.197   2.950
    1MIN     Oh 4372   1.265   2.310   3.150
    1MIN     Op 4373   1.527   2.203   3.157
    1MIN     Op 4374   1.368   2.478   2.943
    1MIN   Ohmg 4375   1.590   2.648   2.950
    1MIN     Op 4376   1.488   2.481   3.157
    1MIN     Op 4377   1.267   2.653   3.157
    1MIN      H 4378   0.961   1.936   3.170
    1MIN      H 4379   1.372   2.119   2.923
    1MIN      H 4380   1.220   2.385   3.178
    1MIN      H 4381   1.633   2.575   2.914
    1MIN    Sit 4382   1.246   2.036   3.320
    1MIN    Sit 4383   1.512   2.190   3.320
    1MIN    Sit 4384   1.505   2.487   3.320
    1MIN    Sit 4385   1.252   2.641   3.320
    1MIN     Ob 4386   1.221   1.887   3.386
    1MIN     Ob 4387   1.134   2.137   3.386
    1MIN     Ob 4388   1.396   2.083   3.365
    1MIN     Ob 4389   1.481   2.337   3.386
    1MIN     Ob 4390   1.394   2.588   3.386
    1MIN     Ob 4391   1.137   2.534   3.365
    1MIN    Sit 4392   1.343   2.769   2.780
    1MIN    Sit 4393   1.091   2.923   2.780
    1MIN    Sit 4394   1.084   3.219   2.780
    1MIN    Sit 4395   1.350   3.373   2.780
    1MIN     Ob 4396   1.459   2.875   2.735
    1MIN     Ob 4397   1.202   2.822   2.714
    1MIN     Ob 4398   1.115   3.072   2.714
    1MIN     Ob 4399   1.200   3.326   2.735
    1MIN     Ob 4400   1.461   3.272   2.714
    1MIN     Ob 4401   1.375   3.523   2.714
    1MIN    Alo 4402   1.168   2.780   3.050
    1MIN    Alo 4403   1.168   3.080   3.050
    1MIN    Alo 4404   1.428   3.231   3.050
    1MIN    Alo 4405   1.428   3.531   3.050
    1MIN     Op 4406   1.329   2.756   2.943
    1MIN     Op 4407   1.108   2.929   2.943
    1MIN     Op 4408   1.228   2.931   3.157
    1MIN     Oh 4409   1.006   2.761   3.150
    1MIN    Omg 4410   1.069   3.207   2.943
    1MIN     Oh 4411   1.331   3.099   2.950
    1MIN     Oh 4412   1.265   3.212   3.150
    1MIN     Op 4413   1.527   3.104   3.157
    1MIN     Op 4414   1.368   3.379   2.943
    1MIN   Ohmg 4415   1.590   3.550   2.950
    1MIN     Op 4416   1.488   3.382   3.157
    1MIN    Omg 4417   1.267   3.555   3.157
    1MIN      H 4418   0.963   2.839   3.174
    1MIN      H 4419   1.372   3.030   2.905
    1MIN      H 4420   1.221   3.288   3.177
    1MIN      H 4421   1.625   3.479   2.901
    1MIN    Sit 4422   1.246   2.937   3.320
    1MIN    Sit 4423   1.512   3.091   3.320
    1MIN    Sit 4424   1.505   3.388   3.320
    1MIN    Sit 4425   1.252   3.542   3.320
    1MIN     Ob 4426   1.221   2.788   3.386
    1MIN     Ob 4427   1.134   3.038   3.386
    1MIN     Ob 4428   1.396   2.985   3.365
    1MIN     Ob 4429   1.481   3.239   3.386
    1MIN     Ob 4430   1.394   3.489   3.386
    1MIN     Ob 4431   1.137   3.435   3.365
    1MIN    Sit 4432   1.863   0.064   2.780
    1MIN    Sit 4433   1.610   0.218   2.780
    1MIN    Sit 4434   1.603   0.515   2.780
    1MIN    Sit 4435   1.869   0.669   2.780
    1MIN     Ob 4436   1.978   0.171   2.735
    1MIN     Ob 4437   1.721   0.117   2.714
    1MIN     Ob 4438   1.635   0.367   2.714
    1MIN     Ob 4439   1.719   0.621   2.735
    1MIN     Ob 4440   1.981   0.568   2.714
    1MIN     Ob 4441   1.894   0.818   2.714
    1MIN    Mgo 4442   1.687   0.075   3.050
    1MIN    Alo 4443   1.687   0.375   3.050
    1MIN    Mgo 4444   1.947   0.526   3.050
    1MIN    Alo 4445   1.947   0.826   3.050
    1MIN    Omg 4446   1.848   0.051   2.943
    1MIN    Omg 4447   1.627   0.224   2.943
    1MIN    Omg 4448   1.747   0.227   3.157
    1MIN   Ohmg 4449   1.525   0.057   3.150
    1MIN     Op 4450   1.588   0.502   2.943
    1MIN   Ohmg 4451   1.850   0.394   2.950
    1MIN   Ohmg 4452   1.785   0.507   3.150
    1MIN    Omg 4453   2.046   0.400   3.157
    1MIN    Omg 4454   1.887   0.675   2.943
    1MIN   Ohmg 4455   2.109   0.845   2.950
    1MIN    Omg 4456   2.007   0.677   3.157
    1MIN    Omg 4457   1.786   0.850   3.157
    1MIN      H 4458   1.468   0.129   3.164
    1MIN      H 4459   1.893   0.318   2.923
    1MIN      H 4460   1.742   0.584   3.179
    1MIN      H 4461   2.153   0.767   2.928
    1MIN    Sit 4462   1.765   0.233   3.320
    1MIN    Sit 4463   2.031   0.387   3.320
    1MIN    Sit 4464   2.024   0.683   3.320
    1MIN    Sit 4465   1.772   0.838   3.320
    1MIN     Ob 4466   1.740   0.084   3.386
    1MIN     Ob 4467   1.654   0.334   3.386
    1MIN     Ob 4468   1.916   0.280   3.365
    1MIN     Ob 4469   2.000   0.534   3.386
    1MIN     Ob 4470   1.913   0.785   3.386
    1MIN     Ob 4471   1.656   0.731   3.365
    1MIN    Sit 4472   1.863   0.965   2.780
    1MIN    Sit 4473   1.610   1.120   2.780
    1MIN    Sit 4474   1.603   1.416   2.780
    1MIN    Sit 4475   1.869   1.570   2.780
    1MIN     Ob 4476   1.978   1.072   2.735
    1MIN     Ob 4477   1.721   1.018   2.714
    1MIN     Ob 4478   1.635   1.269   2.714
    1MIN     Ob 4479   1.719   1.523   2.735
    1MIN     Ob 4480   1.981   1.469   2.714
    1MIN     Ob 4481   1.894   1.719   2.714
    1MIN    Mgo 4482   1.687   0.977   3.050
    1MIN    Alo 4483   1.687   1.277   3.050
    1MIN    Mgo 4484   1.947   1.428   3.050
    1MIN    Alo 4485   1.947   1.728   3.050
    1MIN    Omg 4486   1.848   0.953   2.943
    1MIN    Omg 4487   1.627   1.126   2.943
    1MIN    Omg 4488   1.747   1.128   3.157
    1MIN   Ohmg 4489   1.525   0.958   3.150
    1MIN    Omg 4490   1.588   1.404   2.943
    1MIN   Ohmg 4491   1.850   1.296   2.950
    1MIN   Ohmg 4492   1.785   1.409   3.150
    1MIN    Omg 4493   2.046   1.301   3.157
    1MIN    Omg 4494   1.887   1.576   2.943
    1MIN   Ohmg 4495   2.109   1.747   2.950
    1MIN    Omg 4496   2.007   1.579   3.157
    1MIN    Omg 4497   1.786   1.752   3.157
    1MIN      H 4498   1.485   1.031   3.189
    1MIN      H 4499   1.894   1.217   2.933
    1MIN      H 4500   1.738   1.483   3.179
    1MIN      H 4501   2.151   1.667   2.933
    1MIN    Sit 4502   1.765   1.134   3.320
    1MIN    Sit 4503   2.031   1.288   3.320
    1MIN    Sit 4504   2.024   1.585   3.320
    1MIN    Sit 4505   1.772   1.739   3.320
    1MIN     Ob 4506   1.740   0.985   3.386
    1MIN     Ob 4507   1.654   1.235   3.386
    1MIN     Ob 4508   1.916   1.182   3.365
    1MIN     Ob 4509   2.000   1.436   3.386
    1MIN     Ob 4510   1.913   1.686   3.386
    1MIN     Ob 4511   1.656   1.632   3.365
    1MIN    Sit 4512   1.863   1.867   2.780
    1MIN    Sit 4513   1.610   2.021   2.780
    1MIN    Sit 4514   1.603   2.318   2.780
    1MIN    Sit 4515   1.869   2.472   2.780
    1MIN     Ob 4516   1.978   1.974   2.735
    1MIN     Ob 4517   1.721   1.920   2.714
    1MIN     Ob 4518   1.635   2.170   2.714
    1MIN     Ob 4519   1.719   2.424   2.735
    1MIN     Ob 4520   1.981   2.371   2.714
    1MIN     Ob 4521   1.894   2.621   2.714
    1MIN    Mgo 4522   1.687   1.878   3.050
    1MIN    Alo 4523   1.687   2.179   3.050
    1MIN    Mgo 4524   1.947   2.329   3.050
    1MIN    Alo 4525   1.947   2.629   3.050
    1MIN    Omg 4526   1.848   1.854   2.943
    1MIN    Omg 4527   1.627   2.027   2.943
    1MIN    Omg 4528   1.747   2.030   3.157
    1MIN   Ohmg 4529   1.525   1.860   3.150
    1MIN     Op 4530   1.588   2.305   2.943
    1MIN   Ohmg 4531   1.850   2.197   2.950
    1MIN   Ohmg 4532   1.785   2.310   3.150
    1MIN    Omg 4533   2.046   2.203   3.157
    1MIN    Omg 4534   1.887   2.478   2.943
    1MIN     Oh 4535   2.109   2.648   2.950
    1MIN    Omg 4536   2.007   2.481   3.157
    1MIN    Omg 4537   1.786   2.653   3.157
    1MIN      H 4538   1.478   1.932   3.179
    1MIN      H 4539   1.892   2.119   2.926
    1MIN      H 4540   1.739   2.387   3.170
    1MIN      H 4541   2.152   2.572   2.921
    1MIN    Sit 4542   1.765   2.036   3.320
    1MIN    Sit 4543   2.031   2.190   3.320
    1MIN    Sit 4544   2.024   2.487   3.320
    1MIN    Sit 4545   1.772   2.641   3.320
    1MIN     Ob 4546   1.740   1.887   3.386
    1MIN     Ob 4547   1.654   2.137   3.386
    1MIN     Ob 4548   1.916   2.083   3.365
    1MIN     Ob 4549   2.000   2.337   3.386
    1MIN     Ob 4550   1.913   2.588   3.386
    1MIN     Ob 4551   1.656   2.534   3.365
    1MIN    Sit 4552   1.863   2.769   2.780
    1MIN    Sit 4553   1.610   2.923   2.780
    1MIN    Sit 4554   1.603   3.219   2.780
    1MIN    Sit 4555   1.869   3.373   2.780
    1MIN     Ob 4556   1.978   2.875   2.735
    1MIN     Ob 4557   1.721   2.822   2.714
    1MIN     Ob 4558   1.635   3.072   2.714
    1MIN     Ob 4559   1.719   3.326   2.735
    1MIN     Ob 4560   1.981   3.272   2.714
    1MIN     Ob 4561   1.894   3.523   2.714
    1MIN    Mgo 4562   1.687   2.780   3.050
    1MIN    Alo 4563   1.687   3.080   3.050
    1MIN    Alo 4564   1.947   3.231   3.050
    1MIN    Alo 4565   1.947   3.531   3.050
    1MIN    Omg 4566   1.848   2.756   2.943
    1MIN    Omg 4567   1.627   2.929   2.943
    1MIN    Omg 4568   1.747   2.931   3.157
    1MIN   Ohmg 4569   1.525   2.761   3.150
    1MIN     Op 4570   1.588   3.207   2.943
    1MIN     Oh 4571   1.850   3.099   2.950
    1MIN     Oh 4572   1.785   3.212   3.150
    1MIN     Op 4573   2.046   3.104   3.157
    1MIN     Op 4574   1.887   3.379   2.943
    1MIN     Oh 4575   2.109   3.550   2.950
    1MIN     Op 4576   2.007   3.382   3.157
    1MIN    Omg 4577   1.786   3.555   3.157
    1MIN      H 4578   1.481   2.838   3.173
    1MIN      H 4579   1.888   3.030   2.902
    1MIN      H 4580   1.739   3.289   3.172
    1MIN      H 4581   2.121   3.507   2.868
    1MIN    Sit 4582   1.765   2.937   3.320
    1MIN    Sit 4583   2.031   3.091   3.320
    1MIN    Sit 4584   2.024   3.388   3.320
    1MIN    Sit 4585   1.772   3.542   3.320
    1MIN     Ob 4586   1.740   2.788   3.386
    1MIN     Ob 4587   1.654   3.038   3.386
    1MIN     Ob 4588   1.916   2.985   3.365
    1MIN     Ob 4589   2.000   3.239   3.386
    1MIN     Ob 4590   1.913   3.489   3.386
    1MIN     Ob 4591   1.656   3.435   3.365
    1MIN    Sit 4592   2.382   0.064   2.780
    1MIN    Sit 4593   2.129   0.218   2.780
    1MIN    Sit 4594   2.122   0.515   2.780
    1MIN    Sit 4595   2.389   0.669   2.780
    1MIN     Ob 4596   2.497   0.171   2.735
    1MIN     Ob 4597   2.240   0.117   2.714
    1MIN     Ob 4598   2.154   0.367   2.714
    1MIN     Ob 4599   2.238   0.621   2.735
    1MIN     Ob 4600   2.500   0.568   2.714
    1MIN     Ob 4601   2.413   0.818   2.714
    1MIN    Alo 4602   2.207   0.075   3.050
    1MIN    Alo 4603   2.206   0.375   3.050
    1MIN    Mgo 4604   2.466   0.526   3.050
    1MIN    Alo 4605   2.466   0.826   3.050
    1MIN     Op 4606   2.367   0.051   2.943
    1MIN     Op 4607   2.147   0.224   2.943
    1MIN     Op 4608   2.266   0.227   3.157
    1MIN     Oh 4609   2.044   0.057   3.150
    1MIN    Omg 4610   2.108   0.502   2.943
    1MIN   Ohmg 4611   2.369   0.394   2.950
    1MIN   Ohmg 4612   2.304   0.507   3.150
    1MIN    Omg 4613   2.565   0.400   3.157
    1MIN    Omg 4614   2.406   0.675   2.943
    1MIN   Ohmg 4615   2.628   0.845   2.950
    1MIN    Omg 4616   2.526   0.677   3.157
    1MIN    Omg 4617   2.305   0.850   3.157
    1MIN      H 4618   1.983   0.128   3.150
    1MIN      H 4619   2.412   0.321   2.915
    1MIN      H 4620   2.257   0.585   3.169
    1MIN      H 4621   2.669   0.768   2.920
    1MIN    Sit 4622   2.284   0.233   3.320
    1MIN    Sit 4623   2.550   0.387   3.320
    1MIN    Sit 4624   2.544   0.683   3.320
    1MIN    Sit 4625   2.291   0.838   3.320
    1MIN     Ob 4626   2.259   0.084   3.386
    1MIN     Ob 4627   2.173   0.334   3.386
    1MIN     Ob 4628   2.435   0.280   3.365
    1MIN     Ob 4629   2.519   0.534   3.386
    1MIN     Ob 4630   2.432   0.785   3.386
    1MIN     Ob 4631   2.175   0.731   3.365
    1MIN    Sit 4632   2.382   0.965   2.780
    1MIN    Sit 4633   2.129   1.120   2.780
    1MIN    Sit 4634   2.122   1.416   2.780
    1MIN    Sit 4635   2.389   1.570   2.780
    1MIN     Ob 4636   2.497   1.072   2.735
    1MIN     Ob 4637   2.240   1.018   2.714
    1MIN     Ob 4638   2.154   1.269   2.714
    1MIN     Ob 4639   2.238   1.523   2.735
    1MIN     Ob 4640   2.500   1.469   2.714
    1MIN     Ob 4641   2.413   1.719   2.714
    1MIN    Mgo 4642   2.207   0.977   3.050
    1MIN    Alo 4643   2.206   1.277   3.050
    1MIN    Mgo 4644   2.466   1.428   3.050
    1MIN    Alo 4645   2.466   1.728   3.050
    1MIN    Omg 4646   2.367   0.953   2.943
    1MIN    Omg 4647   2.147   1.126   2.943
    1MIN    Omg 4648   2.266   1.128   3.157
    1MIN   Ohmg 4649   2.044   0.958   3.150
    1MIN    Omg 4650   2.108   1.404   2.943
    1MIN   Ohmg 4651   2.369   1.296   2.950
    1MIN   Ohmg 4652   2.304   1.409   3.150
    1MIN    Omg 4653   2.565   1.301   3.157
    1MIN    Omg 4654   2.406   1.576   2.943
    1MIN     Oh 4655   2.628   1.747   2.950
    1MIN    Omg 4656   2.526   1.579   3.157
    1MIN    Omg 4657   2.305   1.752   3.157
    1MIN      H 4658   1.998   1.034   3.174
    1MIN      H 4659   2.412   1.217   2.931
    1MIN      H 4660   2.256   1.484   3.173
    1MIN      H 4661   2.671   1.670   2.921
    1MIN    Sit 4662   2.284   1.134   3.320
    1MIN    Sit 4663   2.550   1.288   3.320
    1MIN    Sit 4664   2.544   1.585   3.320
    1MIN    Sit 4665   2.291   1.739   3.320
    1MIN     Ob 4666   2.259   0.985   3.386
    1MIN     Ob 4667   2.173   1.235   3.386
    1MIN     Ob 4668   2.435   1.182   3.365
    1MIN     Ob 4669   2.519   1.436   3.386
    1MIN     Ob 4670   2.432   1.686   3.386
    1MIN     Ob 4671   2.175   1.632   3.365
    1MIN    Sit 4672   2.382   1.867   2.780
    1MIN    Sit 4673   2.129   2.021   2.780
    1MIN    Sit 4674   2.122   2.318   2.780
    1MIN    Sit 4675   2.389   2.472   2.780
    1MIN     Ob 4676   2.497   1.974   2.735
    1MIN     Ob 4677   2.240   1.920   2.714
    1MIN     Ob 4678   2.154   2.170   2.714
    1MIN     Ob 4679   2.238   2.424   2.735
    1MIN     Ob 4680   2.500   2.371   2.714
    1MIN     Ob 4681   2.413   2.621   2.714
    1MIN    Mgo 4682   2.207   1.878   3.050
    1MIN    Alo 4683   2.206   2.179   3.050
    1MIN    Mgo 4684   2.466   2.329   3.050
    1MIN    Alo 4685   2.466   2.629   3.050
    1MIN    Omg 4686   2.367   1.854   2.943
    1MIN    Omg 4687   2.147   2.027   2.943
    1MIN    Omg 4688   2.266   2.030   3.157
    1MIN   Ohmg 4689   2.044   1.860   3.150
    1MIN    Omg 4690   2.108   2.305   2.943
    1MIN   Ohmg 4691   2.369   2.197   2.950
    1MIN   Ohmg 4692   2.304   2.310   3.150
    1MIN    Omg 4693   2.565   2.203   3.157
    1MIN    Omg 4694   2.406   2.478   2.943
    1MIN   Ohmg 4695   2.628   2.648   2.950
    1MIN    Omg 4696   2.526   2.481   3.157
    1MIN     Op 4697   2.305   2.653   3.157
    1MIN      H 4698   1.997   1.935   3.171
    1MIN      H 4699   2.412   2.120   2.924
    1MIN      H 4700   2.258   2.386   3.175
    1MIN      H 4701   2.669   2.576   2.910
    1MIN    Sit 4702   2.284   2.036   3.320
    1MIN    Sit 4703   2.550   2.190   3.320
    1MIN    Sit 4704   2.544   2.487   3.320
    1MIN    Sit 4705   2.291   2.641   3.320
    1MIN     Ob 4706   2.259   1.887   3.386
    1MIN     Ob 4707   2.173   2.137   3.386
    1MIN     Ob 4708   2.435   2.083   3.365
    1MIN     Ob 4709   2.519   2.337   3.386
    1MIN     Ob 4710   2.432   2.588   3.386
    1MIN     Ob 4711   2.175   2.534   3.365
    1MIN    Sit 4712   2.382   2.769   2.780
    1MIN    Sit 4713   2.129   2.923   2.780
    1MIN    Sit 4714   2.122   3.219   2.780
    1MIN    Sit 4715   2.389   3.373   2.780
    1MIN     Ob 4716   2.497   2.875   2.735
    1MIN     Ob 4717   2.240   2.822   2.714
    1MIN     Ob 4718   2.154   3.072   2.714
    1MIN     Ob 4719   2.238   3.326   2.735
    1MIN     Ob 4720   2.500   3.272   2.714
    1MIN     Ob 4721   2.413   3.523   2.714
    1MIN    Alo 4722   2.207   2.780   3.050
    1MIN    Alo 4723   2.206   3.080   3.050
    1MIN    Mgo 4724   2.466   3.231   3.050
    1MIN    Alo 4725   2.466   3.531   3.050
    1MIN     Op 4726   2.367   2.756   2.943
    1MIN     Op 4727   2.147   2.929   2.943
    1MIN     Op 4728   2.266   2.931   3.157
    1MIN     Oh 4729   2.044   2.761   3.150
    1MIN     Op 4730   2.108   3.207   2.943
    1MIN   Ohmg 4731   2.369   3.099   2.950
    1MIN   Ohmg 4732   2.304   3.212   3.150
    1MIN    Omg 4733   2.565   3.104   3.157
    1MIN    Omg 4734   2.406   3.379   2.943
    1MIN   Ohmg 4735   2.628   3.550   2.950
    1MIN    Omg 4736   2.526   3.382   3.157
    1MIN     Op 4737   2.305   3.555   3.157
    1MIN      H 4738   1.997   2.838   3.168
    1MIN      H 4739   2.411   3.030   2.905
    1MIN      H 4740   2.261   3.291   3.165
    1MIN      H 4741   2.680   3.474   2.931
    1MIN    Sit 4742   2.284   2.937   3.320
    1MIN    Sit 4743   2.550   3.091   3.320
    1MIN    Sit 4744   2.544   3.388   3.320
    1MIN    Sit 4745   2.291   3.542   3.320
    1MIN     Ob 4746   2.259   2.788   3.386
    1MIN     Ob 4747   2.173   3.038   3.386
    1MIN     Ob 4748   2.435   2.985   3.365
    1MIN     Ob 4749   2.519   3.239   3.386
    1MIN     Ob 4750   2.432   3.489   3.386
    1MIN     Ob 4751   2.175   3.435   3.365
    1MIN    Sit 4752   2.901   0.064   2.780
    1MIN    Sit 4753   2.648   0.218   2.780
    1MIN    Sit 4754   2.641   0.515   2.780
    1MIN    Sit 4755   2.908   0.669   2.780
    1MIN     Ob 4756   3.017   0.171   2.735
    1MIN     Ob 4757   2.759   0.117   2.714
    1MIN     Ob 4758   2.673   0.367   2.714
    1MIN     Ob 4759   2.757   0.621   2.735
    1MIN     Ob 4760   3.019   0.568   2.714
    1MIN     Ob 4761   2.932   0.818   2.714
    1MIN    Mgo 4762   2.726   0.075   3.050
    1MIN    Alo 4763   2.726   0.375   3.050
    1MIN    Alo 4764   2.985   0.526   3.050
    1MIN    Alo 4765   2.985   0.826   3.050
    1MIN    Omg 4766   2.886   0.051   2.943
    1MIN    Omg 4767   2.666   0.224   2.943
    1MIN    Omg 4768   2.786   0.227   3.157
    1MIN   Ohmg 4769   2.563   0.057   3.150
    1MIN    Omg 4770   2.627   0.502   2.943
    1MIN     Oh 4771   2.888   0.394   2.950
    1MIN     Oh 4772   2.823   0.507   3.150
    1MIN     Op 4773   3.084   0.400   3.157
    1MIN     Op 4774   2.925   0.675   2.943
    1MIN     Oh 4775   3.148   0.845   2.950
    1MIN     Op 4776   3.045   0.677   3.157
    1MIN    Omg 4777   2.825   0.850   3.157
    1MIN      H 4778   2.508   0.131   3.155
    1MIN      H 4779   2.929   0.319   2.916
    1MIN      H 4780   2.775   0.583   3.170
    1MIN      H 4781   3.189   0.770   2.913
    1MIN    Sit 4782   2.803   0.233   3.320
    1MIN    Sit 4783   3.070   0.387   3.320
    1MIN    Sit 4784   3.063   0.683   3.320
    1MIN    Sit 4785   2.810   0.838   3.320
    1MIN     Ob 4786   2.779   0.084   3.386
    1MIN     Ob 4787   2.692   0.334   3.386
    1MIN     Ob 4788   2.954   0.280   3.365
    1MIN     Ob 4789   3.038   0.534   3.386
    1MIN     Ob 4790   2.952   0.785   3.386
    1MIN     Ob 4791   2.694   0.731   3.365
    1MIN    Sit 4792   2.901   0.965   2.780
    1MIN    Sit 4793   2.648   1.120   2.780
    1MIN    Sit 4794   2.641   1.416   2.780
    1MIN    Sit 4795   2.908   1.570   2.780
    1MIN     Ob 4796   3.017   1.072   2.735
    1MIN     Ob 4797   2.759   1.018   2.714
    1MIN     Ob 4798   2.673   1.269   2.714
    1MIN     Ob 4799   2.757   1.523   2.735
    1MIN     Ob 4800   3.019   1.469   2.714
    1MIN     Ob 4801   2.932   1.719   2.714
    1MIN    Mgo 4802   2.726   0.977   3.050
    1MIN    Alo 4803   2.726   1.277   3.050
    1MIN    Mgo 4804   2.985   1.428   3.050
    1MIN    Alo 4805   2.985   1.728   3.050
    1MIN    Omg 4806   2.886   0.953   2.943
    1MIN    Omg 4807   2.666   1.126   2.943
    1MIN    Omg 4808   2.786   1.128   3.157
    1MIN   Ohmg 4809   2.563   0.958   3.150
    1MIN    Omg 4810   2.627   1.404   2.943
    1MIN   Ohmg 4811   2.888   1.296   2.950
    1MIN   Ohmg 4812   2.823   1.409   3.150
    1MIN    Omg 4813   3.084   1.301   3.157
    1MIN    Omg 4814   2.925   1.576   2.943
    1MIN   Ohmg 4815   3.148   1.747   2.950
    1MIN    Omg 4816   3.045   1.579   3.157
    1MIN     Op 4817   2.825   1.752   3.157
    1MIN      H 4818   2.517   1.034   3.174
    1MIN      H 4819   2.931   1.218   2.928
    1MIN      H 4820   2.776   1.483   3.176
    1MIN      H 4821   3.208   1.675   2.946
    1MIN    Sit 4822   2.803   1.134   3.320
    1MIN    Sit 4823   3.070   1.288   3.320
    1MIN    Sit 4824   3.063   1.585   3.320
    1MIN    Sit 4825   2.810   1.739   3.320
    1MIN     Ob 4826   2.779   0.985   3.386
    1MIN     Ob 4827   2.692   1.235   3.386
    1MIN     Ob 4828   2.954   1.182   3.365
    1MIN     Ob 4829   3.038   1.436   3.386
    1MIN     Ob 4830   2.952   1.686   3.386
    1MIN     Ob 4831   2.694   1.632   3.365
    1MIN    Sit 4832   2.901   1.867   2.780
    1MIN    Sit 4833   2.648   2.021   2.780
    1MIN    Sit 4834   2.641   2.318   2.780
    1MIN    Sit 4835   2.908   2.472   2.780
    1MIN     Ob 4836   3.017   1.974   2.735
    1MIN     Ob 4837   2.759   1.920   2.714
    1MIN     Ob 4838   2.673   2.170   2.714
    1MIN     Ob 4839   2.757   2.424   2.735
    1MIN     Ob 4840   3.019   2.371   2.714
    1MIN     Ob 4841   2.932   2.621   2.714
    1MIN    Alo 4842   2.726   1.878   3.050
    1MIN    Alo 4843   2.726   2.179   3.050
    1MIN    Alo 4844   2.985   2.329   3.050
    1MIN    Alo 4845   2.985   2.629   3.050
    1MIN     Op 4846   2.886   1.854   2.943
    1MIN     Op 4847   2.666   2.027   2.943
    1MIN     Op 4848   2.786   2.030   3.157
    1MIN     Oh 4849   2.563   1.860   3.150
    1MIN    Omg 4850   2.627   2.305   2.943
    1MIN     Oh 4851   2.888   2.197   2.950
    1MIN     Oh 4852   2.823   2.310   3.150
    1MIN     Op 4853   3.084   2.203   3.157
    1MIN     Op 4854   2.925   2.478   2.943
    1MIN   Ohmg 4855   3.148   2.648   2.950
    1MIN     Op 4856   3.045   2.481   3.157
    1MIN    Omg 4857   2.825   2.653   3.157
    1MIN      H 4858   2.516   1.935   3.173
    1MIN      H 4859   2.929   2.127   2.907
    1MIN      H 4860   2.775   2.387   3.169
    1MIN      H 4861   3.202   2.575   2.932
    1MIN    Sit 4862   2.803   2.036   3.320
    1MIN    Sit 4863   3.070   2.190   3.320
    1MIN    Sit 4864   3.063   2.487   3.320
    1MIN    Sit 4865   2.810   2.641   3.320
    1MIN     Ob 4866   2.779   1.887   3.386
    1MIN     Ob 4867   2.692   2.137   3.386
    1MIN     Ob 4868   2.954   2.083   3.365
    1MIN     Ob 4869   3.038   2.337   3.386
    1MIN     Ob 4870   2.952   2.588   3.386
    1MIN     Ob 4871   2.694   2.534   3.365
    1MIN    Sit 4872   2.901   2.769   2.780
    1MIN    Sit 4873   2.648   2.923   2.780
    1MIN    Sit 4874   2.641   3.219   2.780
    1MIN    Sit 4875   2.908   3.373   2.780
    1MIN     Ob 4876   3.017   2.875   2.735
    1MIN     Ob 4877   2.759   2.822   2.714
    1MIN     Ob 4878   2.673   3.072   2.714
    1MIN     Ob 4879   2.757   3.326   2.735
    1MIN     Ob 4880   3.019   3.272   2.714
    1MIN     Ob 4881   2.932   3.523   2.714
    1MIN    Mgo 4882   2.726   2.780   3.050
    1MIN    Alo 4883   2.726   3.080   3.050
    1MIN    Mgo 4884   2.985   3.231   3.050
    1MIN    Alo 4885   2.985   3.531   3.050
    1MIN    Omg 4886   2.886   2.756   2.943
    1MIN    Omg 4887   2.666   2.929   2.943
    1MIN    Omg 4888   2.786   2.931   3.157
    1MIN   Ohmg 4889   2.563   2.761   3.150
    1MIN    Omg 4890   2.627   3.207   2.943
    1MIN   Ohmg 4891   2.888   3.099   2.950
    1MIN   Ohmg 4892   2.823   3.212   3.150
    1MIN    Omg 4893   3.084   3.104   3.157
    1MIN    Omg 4894   2.925   3.379   2.943
    1MIN   Ohmg 4895   3.148   3.550   2.950
    1MIN    Omg 4896   3.045   3.382   3.157
    1MIN    Omg 4897   2.825   3.555   3.157
    1MIN      H 4898   2.520   2.840   3.168
    1MIN      H 4899   2.930   3.023   2.919
    1MIN      H 4900   2.777   3.289   3.170
    1MIN      H 4901   3.182   3.476   2.905
    1MIN    Sit 4902   2.803   2.937   3.320
    1MIN    Sit 4903   3.070   3.091   3.320
    1MIN    Sit 4904   3.063   3.388   3.320
    1MIN    Sit 4905   2.810   3.542   3.320
    1MIN     Ob 4906   2.779   2.788   3.386
    1MIN     Ob 4907   2.692   3.038   3.386
    1MIN     Ob 4908   2.954   2.985   3.365
    1MIN     Ob 4909   3.038   3.239   3.386
    1MIN     Ob 4910   2.952   3.489   3.386
    1MIN     Ob 4911   2.694   3.435   3.365
    1MIN    Sit 4912   0.205   0.064   3.777
    1MIN    Sit 4913  -0.048   0.218   3.777
    1MIN    Sit 4914  -0.055   0.515   3.777
    1MIN    Sit 4915   0.212   0.669   3.777
    1MIN     Ob 4916   0.321   0.171   3.732
    1MIN     Ob 4917   0.063   0.117   3.711
    1MIN     Ob 4918  -0.023   0.367   3.712
    1MIN     Ob 4919   0.061   0.621   3.732
    1MIN     Ob 4920   0.323   0.568   3.711
    1MIN     Ob 4921   0.236   0.818   3.712
    1MIN    Mgo 4922   0.030   0.075   4.047
    1MIN    Alo 4923   0.030   0.375   4.047
    1MIN    Mgo 4924   0.289   0.526   4.047
    1MIN    Alo 4925   0.289   0.826   4.047
    1MIN    Omg 4926   0.190   0.051   3.941
    1MIN    Omg 4927  -0.030   0.224   3.941
    1MIN    Omg 4928   0.089   0.227   4.154
    1MIN   Ohmg 4929  -0.133   0.057   4.147
    1MIN     Op 4930  -0.069   0.502   3.941
    1MIN   Ohmg 4931   0.192   0.394   3.947
    1MIN   Ohmg 4932   0.127   0.507   4.147
    1MIN    Omg 4933   0.388   0.400   4.154
    1MIN    Omg 4934   0.229   0.675   3.941
    1MIN     Oh 4935   0.452   0.845   3.947
    1MIN    Omg 4936   0.349   0.677   4.154
    1MIN     Op 4937   0.128   0.850   4.154
    1MIN      H 4938  -0.191   0.128   4.159
    1MIN      H 4939   0.237   0.316   3.931
    1MIN      H 4940   0.086   0.578   4.190
    1MIN      H 4941   0.496   0.771   3.916
    1MIN    Sit 4942   0.107   0.233   4.318
    1MIN    Sit 4943   0.373   0.387   4.318
    1MIN    Sit 4944   0.367   0.683   4.318
    1MIN    Sit 4945   0.114   0.838   4.318
    1MIN     Ob 4946   0.082   0.084   4.383
    1MIN     Ob 4947  -0.004   0.334   4.384
    1MIN     Ob 4948   0.258   0.280   4.362
    1MIN     Ob 4949   0.342   0.534   4.383
    1MIN     Ob 4950   0.256   0.785   4.384
    1MIN     Ob 4951  -0.002   0.731   4.362
    1MIN    Sit 4952   0.205   0.965   3.777
    1MIN    Sit 4953  -0.048   1.120   3.777
    1MIN    Sit 4954  -0.055   1.416   3.777
    1MIN    Sit 4955   0.212   1.570   3.777
    1MIN     Ob 4956   0.321   1.072   3.732
    1MIN     Ob 4957   0.063   1.018   3.711
    1MIN     Ob 4958  -0.023   1.269   3.712
    1MIN     Ob 4959   0.061   1.523   3.732
    1MIN     Ob 4960   0.323   1.469   3.711
    1MIN     Ob 4961   0.236   1.719   3.712
    1MIN    Alo 4962   0.030   0.977   4.047
    1MIN    Alo 4963   0.030   1.277   4.047
    1MIN    Mgo 4964   0.289   1.428   4.047
    1MIN    Alo 4965   0.289   1.728   4.047
    1MIN     Op 4966   0.190   0.953   3.941
    1MIN     Op 4967  -0.030   1.126   3.941
    1MIN     Op 4968   0.089   1.128   4.154
    1MIN     Oh 4969  -0.133   0.958   4.147
    1MIN    Omg 4970  -0.069   1.404   3.941
    1MIN   Ohmg 4971   0.192   1.296   3.947
    1MIN   Ohmg 4972   0.127   1.409   4.147
    1MIN    Omg 4973   0.388   1.301   4.154
    1MIN    Omg 4974   0.229   1.576   3.941
    1MIN   Ohmg 4975   0.452   1.747   3.947
    1MIN    Omg 4976   0.349   1.579   4.154
    1MIN     Op 4977   0.128   1.752   4.154
    1MIN      H 4978  -0.185   1.033   4.169
    1MIN      H 4979   0.237   1.221   3.918
    1MIN      H 4980   0.082   1.484   4.176
    1MIN      H 4981   0.497   1.668   3.928
    1MIN    Sit 4982   0.107   1.134   4.318
    1MIN    Sit 4983   0.373   1.288   4.318
    1MIN    Sit 4984   0.367   1.585   4.318
    1MIN    Sit 4985   0.114   1.739   4.318
    1MIN     Ob 4986   0.082   0.985   4.383
    1MIN     Ob 4987  -0.004   1.235   4.384
    1MIN     Ob 4988   0.258   1.182   4.362
    1MIN     Ob 4989   0.342   1.436   4.383
    1MIN     Ob 4990   0.256   1.686   4.384
    1MIN     Ob 4991  -0.002   1.632   4.362
    1MIN    Sit 4992   0.205   1.867   3.777
    1MIN    Sit 4993  -0.048   2.021   3.777
    1MIN    Sit 4994  -0.055   2.318   3.777
    1MIN    Sit 4995   0.212   2.472   3.777
    1MIN     Ob 4996   0.321   1.974   3.732
    1MIN     Ob 4997   0.063   1.920   3.711
    1MIN     Ob 4998  -0.023   2.170   3.712
    1MIN     Ob 4999   0.061   2.424   3.732
    1MIN     Ob 5000   0.323   2.371   3.711
    1MIN     Ob 5001   0.236   2.621   3.712
    1MIN    Alo 5002   0.030   1.878   4.047
    1MIN    Alo 5003   0.030   2.179   4.047
    1MIN    Mgo 5004   0.289   2.329   4.047
    1MIN    Alo 5005   0.289   2.629   4.047
    1MIN     Op 5006   0.190   1.854   3.941
    1MIN     Op 5007  -0.030   2.027   3.941
    1MIN     Op 5008   0.089   2.030   4.154
    1MIN     Oh 5009  -0.133   1.860   4.147
    1MIN    Omg 5010  -0.069   2.305   3.941
    1MIN   Ohmg 5011   0.192   2.197   3.947
    1MIN   Ohmg 5012   0.127   2.310   4.147
    1MIN    Omg 5013   0.388   2.203   4.154
    1MIN    Omg 5014   0.229   2.478   3.941
    1MIN     Oh 5015   0.452   2.648   3.947
    1MIN    Omg 5016   0.349   2.481   4.154
    1MIN    Omg 5017   0.128   2.653   4.154
    1MIN      H 5018  -0.184   1.934   4.172
    1MIN      H 5019   0.238   2.119   3.935
    1MIN      H 5020   0.083   2.384   4.182
    1MIN      H 5021   0.496   2.570   3.931
    1MIN    Sit 5022   0.107   2.036   4.318
    1MIN    Sit 5023   0.373   2.190   4.318
    1MIN    Sit 5024   0.367   2.487   4.318
    1MIN    Sit 5025   0.114   2.641   4.318
    1MIN     Ob 5026   0.082   1.887   4.383
    1MIN     Ob 5027  -0.004   2.137   4.384
    1MIN     Ob 5028   0.258   2.083   4.362
    1MIN     Ob 5029   0.342   2.337   4.383
    1MIN     Ob 5030   0.256   2.588   4.384
    1MIN     Ob 5031  -0.002   2.534   4.362
    1MIN    Sit 5032   0.205   2.769   3.777
    1MIN    Sit 5033  -0.048   2.923   3.777
    1MIN    Sit 5034  -0.055   3.219   3.777
    1MIN    Sit 5035   0.212   3.373   3.777
    1MIN     Ob 5036   0.321   2.875   3.732
    1MIN     Ob 5037   0.063   2.822   3.711
    1MIN     Ob 5038  -0.023   3.072   3.712
    1MIN     Ob 5039   0.061   3.326   3.732
    1MIN     Ob 5040   0.323   3.272   3.711
    1MIN     Ob 5041   0.236   3.523   3.712
    1MIN    Mgo 5042   0.030   2.780   4.047
    1MIN    Alo 5043   0.030   3.080   4.047
    1MIN    Mgo 5044   0.289   3.231   4.047
    1MIN    Alo 5045   0.289   3.531   4.047
    1MIN    Omg 5046   0.190   2.756   3.941
    1MIN    Omg 5047  -0.030   2.929   3.941
    1MIN    Omg 5048   0.089   2.931   4.154
    1MIN   Ohmg 5049  -0.133   2.761   4.147
    1MIN    Omg 5050  -0.069   3.207   3.941
    1MIN   Ohmg 5051   0.192   3.099   3.947
    1MIN   Ohmg 5052   0.127   3.212   4.147
    1MIN    Omg 5053   0.388   3.104   4.154
    1MIN    Omg 5054   0.229   3.379   3.941
    1MIN     Oh 5055   0.452   3.550   3.947
    1MIN    Omg 5056   0.349   3.382   4.154
    1MIN    Omg 5057   0.128   3.555   4.154
    1MIN      H 5058  -0.187   2.835   4.163
    1MIN      H 5059   0.236   3.021   3.930
    1MIN      H 5060   0.083   3.286   4.179
    1MIN      H 5061   0.501   3.472   3.931
    1MIN    Sit 5062   0.107   2.937   4.318
    1MIN    Sit 5063   0.373   3.091   4.318
    1MIN    Sit 5064   0.367   3.388   4.318
    1MIN    Sit 5065   0.114   3.542   4.318
    1MIN     Ob 5066   0.082   2.788   4.383
    1MIN     Ob 5067  -0.004   3.038   4.384
    1MIN     Ob 5068   0.258   2.985   4.362
    1MIN     Ob 5069   0.342   3.239   4.383
    1MIN     Ob 5070   0.256   3.489   4.384
    1MIN     Ob 5071  -0.002   3.435   4.362
    1MIN    Sit 5072   0.724   0.064   3.777
    1MIN    Sit 5073   0.471   0.218   3.777
    1MIN    Sit 5074   0.465   0.515   3.777
    1MIN    Sit 5075   0.731   0.669   3.777
    1MIN     Ob 5076   0.840   0.171   3.732
    1MIN     Ob 5077   0.583   0.117   3.711
    1MIN     Ob 5078   0.496   0.367   3.712
    1MIN     Ob 5079   0.580   0.621   3.732
    1MIN     Ob 5080   0.842   0.568   3.711
    1MIN     Ob 5081   0.756   0.818   3.712
    1MIN    Alo 5082   0.549   0.075   4.047
    1MIN    Alo 5083   0.549   0.375   4.047
    1MIN    Alo 5084   0.808   0.526   4.047
    1MIN    Alo 5085   0.808   0.826   4.047
    1MIN     Op 5086   0.710   0.051   3.941
    1MIN     Op 5087   0.489   0.224   3.941
    1MIN     Op 5088   0.609   0.227   4.154
    1MIN     Oh 5089   0.386   0.057   4.147
    1MIN    Omg 5090   0.450   0.502   3.941
    1MIN     Oh 5091   0.711   0.394   3.947
    1MIN     Oh 5092   0.646   0.507   4.147
    1MIN     Op 5093   0.907   0.400   4.154
    1MIN     Op 5094   0.749   0.675   3.941
    1MIN   Ohmg 5095   0.971   0.845   3.947
    1MIN     Op 5096   0.868   0.677   4.154
    1MIN     Op 5097   0.648   0.850   4.154
    1MIN      H 5098   0.335   0.130   4.172
    1MIN      H 5099   0.754   0.321   3.913
    1MIN      H 5100   0.602   0.581   4.180
    1MIN      H 5101   1.013   0.776   3.904
    1MIN    Sit 5102   0.626   0.233   4.318
    1MIN    Sit 5103   0.893   0.387   4.318
    1MIN    Sit 5104   0.886   0.683   4.318
    1MIN    Sit 5105   0.633   0.838   4.318
    1MIN     Ob 5106   0.602   0.084   4.383
    1MIN     Ob 5107   0.515   0.334   4.384
    1MIN     Ob 5108   0.777   0.280   4.362
    1MIN     Ob 5109   0.861   0.534   4.383
    1MIN     Ob 5110   0.775   0.785   4.384
    1MIN     Ob 5111   0.517   0.731   4.362
    1MIN    Sit 5112   0.724   0.965   3.777
    1MIN    Sit 5113   0.471   1.120   3.777
    1MIN    Sit 5114   0.465   1.416   3.777
    1MIN    Sit 5115   0.731   1.570   3.777
    1MIN     Ob 5116   0.840   1.072   3.732
    1MIN     Ob 5117   0.583   1.018   3.711
    1MIN     Ob 5118   0.496   1.269   3.712
    1MIN     Ob 5119   0.580   1.523   3.732
    1MIN     Ob 5120   0.842   1.469   3.711
    1MIN     Ob 5121   0.756   1.719   3.712
    1MIN    Alo 5122   0.549   0.977   4.047
    1MIN    Alo 5123   0.549   1.277   4.047
    1MIN    Mgo 5124   0.808   1.428   4.047
    1MIN    Alo 5125   0.808   1.728   4.047
    1MIN     Op 5126   0.710   0.953   3.941
    1MIN     Op 5127   0.489   1.126   3.941
    1MIN     Op 5128   0.609   1.128   4.154
    1MIN     Oh 5129   0.386   0.958   4.147
    1MIN    Omg 5130   0.450   1.404   3.941
    1MIN   Ohmg 5131   0.711   1.296   3.947
    1MIN   Ohmg 5132   0.646   1.409   4.147
    1MIN    Omg 5133   0.907   1.301   4.154
    1MIN    Omg 5134   0.749   1.576   3.941
    1MIN     Oh 5135   0.971   1.747   3.947
    1MIN    Omg 5136   0.868   1.579   4.154
    1MIN    Omg 5137   0.648   1.752   4.154
    1MIN      H 5138   0.344   1.033   4.180
    1MIN      H 5139   0.756   1.224   3.911
    1MIN      H 5140   0.601   1.486   4.170
    1MIN      H 5141   1.014   1.669   3.921
    1MIN    Sit 5142   0.626   1.134   4.318
    1MIN    Sit 5143   0.893   1.288   4.318
    1MIN    Sit 5144   0.886   1.585   4.318
    1MIN    Sit 5145   0.633   1.739   4.318
    1MIN     Ob 5146   0.602   0.985   4.383
    1MIN     Ob 5147   0.515   1.235   4.384
    1MIN     Ob 5148   0.777   1.182   4.362
    1MIN     Ob 5149   0.861   1.436   4.383
    1MIN     Ob 5150   0.775   1.686   4.384
    1MIN     Ob 5151   0.517   1.632   4.362
    1MIN    Sit 5152   0.724   1.867   3.777
    1MIN    Sit 5153   0.471   2.021   3.777
    1MIN    Sit 5154   0.465   2.318   3.777
    1MIN    Sit 5155   0.731   2.472   3.777
    1MIN     Ob 5156   0.840   1.974   3.732
    1MIN     Ob 5157   0.583   1.920   3.711
    1MIN     Ob 5158   0.496   2.170   3.712
    1MIN     Ob 5159   0.580   2.424   3.732
    1MIN     Ob 5160   0.842   2.371   3.711
    1MIN     Ob 5161   0.756   2.621   3.712
    1MIN    Mgo 5162   0.549   1.878   4.047
    1MIN    Alo 5163   0.549   2.179   4.047
    1MIN    Mgo 5164   0.808   2.329   4.047
    1MIN    Alo 5165   0.808   2.629   4.047
    1MIN    Omg 5166   0.710   1.854   3.941
    1MIN    Omg 5167   0.489   2.027   3.941
    1MIN    Omg 5168   0.609   2.030   4.154
    1MIN   Ohmg 5169   0.386   1.860   4.147
    1MIN    Omg 5170   0.450   2.305   3.941
    1MIN   Ohmg 5171   0.711   2.197   3.947
    1MIN   Ohmg 5172   0.646   2.310   4.147
    1MIN    Omg 5173   0.907   2.203   4.154
    1MIN    Omg 5174   0.749   2.478   3.941
    1MIN   Ohmg 5175   0.971   2.648   3.947
    1MIN    Omg 5176   0.868   2.481   4.154
    1MIN     Op 5177   0.648   2.653   4.154
    1MIN      H 5178   0.346   1.933   4.185
    1MIN      H 5179   0.756   2.118   3.935
    1MIN      H 5180   0.603   2.382   4.185
    1MIN      H 5181   1.017   2.570   3.930
    1MIN    Sit 5182   0.626   2.036   4.318
    1MIN    Sit 5183   0.893   2.190   4.318
    1MIN    Sit 5184   0.886   2.487   4.318
    1MIN    Sit 5185   0.633   2.641   4.318
    1MIN     Ob 5186   0.602   1.887   4.383
    1MIN     Ob 5187   0.515   2.137   4.384
    1MIN     Ob 5188   0.777   2.083   4.362
    1MIN     Ob 5189   0.861   2.337   4.383
    1MIN     Ob 5190   0.775   2.588   4.384
    1MIN     Ob 5191   0.517   2.534   4.362
    1MIN    Sit 5192   0.724   2.769   3.777
    1MIN    Sit 5193   0.471   2.923   3.777
    1MIN    Sit 5194   0.465   3.219   3.777
    1MIN    Sit 5195   0.731   3.373   3.777
    1MIN     Ob 5196   0.840   2.875   3.732
    1MIN     Ob 5197   0.583   2.822   3.711
    1MIN     Ob 5198   0.496   3.072   3.712
    1MIN     Ob 5199   0.580   3.326   3.732
    1MIN     Ob 5200   0.842   3.272   3.711
    1MIN     Ob 5201   0.756   3.523   3.712
    1MIN    Alo 5202   0.549   2.780   4.047
    1MIN    Alo 5203   0.549   3.080   4.047
    1MIN    Mgo 5204   0.808   3.231   4.047
    1MIN    Alo 5205   0.808   3.531   4.047
    1MIN     Op 5206   0.710   2.756   3.941
    1MIN     Op 5207   0.489   2.929   3.941
    1MIN     Op 5208   0.609   2.931   4.154
    1MIN     Oh 5209   0.386   2.761   4.147
    1MIN    Omg 5210   0.450   3.207   3.941
    1MIN   Ohmg 5211   0.711   3.099   3.947
    1MIN   Ohmg 5212   0.646   3.212   4.147
    1MIN    Omg 5213   0.907   3.104   4.154
    1MIN    Omg 5214   0.749   3.379   3.941
    1MIN     Oh 5215   0.971   3.550   3.947
    1MIN    Omg 5216   0.868   3.382   4.154
    1MIN     Op 5217   0.648   3.555   4.154
    1MIN      H 5218   0.342   2.835   4.180
    1MIN      H 5219   0.758   3.023   3.924
    1MIN      H 5220   0.601   3.286   4.178
    1MIN      H 5221   1.019   3.472   3.927
    1MIN    Sit 5222   0.626   2.937   4.318
    1MIN    Sit 5223   0.893   3.091   4.318
    1MIN    Sit 5224   0.886   3.388   4.318
    1MIN    Sit 5225   0.633   3.542   4.318
    1MIN     Ob 5226   0.602   2.788   4.383
    1MIN     Ob 5227   0.515   3.038   4.384
    1MIN     Ob 5228   0.777   2.985   4.362
    1MIN     Ob 5229   0.861   3.239   4.383
    1MIN     Ob 5230   0.775   3.489   4.384
    1MIN     Ob 5231   0.517   3.435   4.362
    1MIN    Sit 5232   1.243   0.064   3.777
    1MIN    Sit 5233   0.990   0.218   3.777
    1MIN    Sit 5234   0.984   0.515   3.777
    1MIN    Sit 5235   1.250   0.669   3.777
    1MIN     Ob 5236   1.359   0.171   3.732
    1MIN     Ob 5237   1.102   0.117   3.711
    1MIN     Ob 5238   1.015   0.367   3.712
    1MIN     Ob 5239   1.099   0.621   3.732
    1MIN     Ob 5240   1.361   0.568   3.711
    1MIN     Ob 5241   1.275   0.818   3.712
    1MIN    Alo 5242   1.068   0.075   4.047
    1MIN    Alo 5243   1.068   0.375   4.047
    1MIN    Alo 5244   1.328   0.526   4.047
    1MIN    Alo 5245   1.328   0.826   4.047
    1MIN     Op 5246   1.229   0.051   3.941
    1MIN     Op 5247   1.008   0.224   3.941
    1MIN     Op 5248   1.128   0.227   4.154
    1MIN     Oh 5249   0.906   0.057   4.147
    1MIN     Op 5250   0.969   0.502   3.941
    1MIN     Oh 5251   1.230   0.394   3.947
    1MIN     Oh 5252   1.165   0.507   4.147
    1MIN     Op 5253   1.426   0.400   4.154
    1MIN     Op 5254   1.268   0.675   3.941
    1MIN     Oh 5255   1.490   0.845   3.947
    1MIN     Op 5256   1.387   0.677   4.154
    1MIN    Omg 5257   1.167   0.850   4.154
    1MIN      H 5258   0.891   0.104   4.226
    1MIN      H 5259   1.274   0.322   3.910
    1MIN      H 5260   1.123   0.583   4.178
    1MIN      H 5261   1.532   0.773   3.908
    1MIN    Sit 5262   1.146   0.233   4.318
    1MIN    Sit 5263   1.412   0.387   4.318
    1MIN    Sit 5264   1.405   0.683   4.318
    1MIN    Sit 5265   1.152   0.838   4.318
    1MIN     Ob 5266   1.121   0.084   4.383
    1MIN     Ob 5267   1.034   0.334   4.384
    1MIN     Ob 5268   1.296   0.280   4.362
    1MIN     Ob 5269   1.380   0.534   4.383
    1MIN     Ob 5270   1.294   0.785   4.384
    1MIN     Ob 5271   1.037   0.731   4.362
    1MIN    Sit 5272   1.243   0.965   3.777
    1MIN    Sit 5273   0.990   1.120   3.777
    1MIN    Sit 5274   0.984   1.416   3.777
    1MIN    Sit 5275   1.250   1.570   3.777
    1MIN     Ob 5276   1.359   1.072   3.732
    1MIN     Ob 5277   1.102   1.018   3.711
    1MIN     Ob 5278   1.015   1.269   3.712
    1MIN     Ob 5279   1.099   1.523   3.732
    1MIN     Ob 5280   1.361   1.469   3.711
    1MIN     Ob 5281   1.275   1.719   3.712
    1MIN    Mgo 5282   1.068   0.977   4.047
    1MIN    Alo 5283   1.068   1.277   4.047
    1MIN    Mgo 5284   1.328   1.428   4.047
    1MIN    Alo 5285   1.328   1.728   4.047
    1MIN    Omg 5286   1.229   0.953   3.941
    1MIN    Omg 5287   1.008   1.126   3.941
    1MIN    Omg 5288   1.128   1.128   4.154
    1MIN   Ohmg 5289   0.906   0.958   4.147
    1MIN    Omg 5290   0.969   1.404   3.941
    1MIN   Ohmg 5291   1.230   1.296   3.947
    1MIN   Ohmg 5292   1.165   1.409   4.147
    1MIN    Omg 5293   1.426   1.301   4.154
    1MIN    Omg 5294   1.268   1.576   3.941
    1MIN   Ohmg 5295   1.490   1.747   3.947
    1MIN    Omg 5296   1.387   1.579   4.154
    1MIN     Op 5297   1.167   1.752   4.154
    1MIN      H 5298   0.863   1.037   4.169
    1MIN      H 5299   1.271   1.223   3.908
    1MIN      H 5300   1.120   1.485   4.168
    1MIN      H 5301   1.531   1.671   3.914
    1MIN    Sit 5302   1.146   1.134   4.318
    1MIN    Sit 5303   1.412   1.288   4.318
    1MIN    Sit 5304   1.405   1.585   4.318
    1MIN    Sit 5305   1.152   1.739   4.318
    1MIN     Ob 5306   1.121   0.985   4.383
    1MIN     Ob 5307   1.034   1.235   4.384
    1MIN     Ob 5308   1.296   1.182   4.362
    1MIN     Ob 5309   1.380   1.436   4.383
    1MIN     Ob 5310   1.294   1.686   4.384
    1MIN     Ob 5311   1.037   1.632   4.362
    1MIN    Sit 5312   1.243   1.867   3.777
    1MIN    Sit 5313   0.990   2.021   3.777
    1MIN    Sit 5314   0.984   2.318   3.777
    1MIN    Sit 5315   1.250   2.472   3.777
    1MIN     Ob 5316   1.359   1.974   3.732
    1MIN     Ob 5317   1.102   1.920   3.711
    1MIN     Ob 5318   1.015   2.170   3.712
    1MIN     Ob 5319   1.099   2.424   3.732
    1MIN     Ob 5320   1.361   2.371   3.711
    1MIN     Ob 5321   1.275   2.621   3.712
    1MIN    Alo 5322   1.068   1.878   4.047
    1MIN    Alo 5323   1.068   2.179   4.047
    1MIN    Mgo 5324   1.328   2.329   4.047
    1MIN    Alo 5325   1.328   2.629   4.047
    1MIN     Op 5326   1.229   1.854   3.941
    1MIN     Op 5327   1.008   2.027   3.941
    1MIN     Op 5328   1.128   2.030   4.154
    1MIN     Oh 5329   0.906   1.860   4.147
    1MIN    Omg 5330   0.969   2.305   3.941
    1MIN   Ohmg 5331   1.230   2.197   3.947
    1MIN   Ohmg 5332   1.165   2.310   4.147
    1MIN    Omg 5333   1.426   2.203   4.154
    1MIN    Omg 5334   1.268   2.478   3.941
    1MIN   Ohmg 5335   1.490   2.648   3.947
    1MIN    Omg 5336   1.387   2.481   4.154
    1MIN    Omg 5337   1.167   2.653   4.154
    1MIN      H 5338   0.861   1.933   4.180
    1MIN      H 5339   1.276   2.122   3.922
    1MIN      H 5340   1.121   2.387   4.173
    1MIN      H 5341   1.534   2.569   3.931
    1MIN    Sit 5342   1.146   2.036   4.318
    1MIN    Sit 5343   1.412   2.190   4.318
    1MIN    Sit 5344   1.405   2.487   4.318
    1MIN    Sit 5345   1.152   2.641   4.318
    1MIN     Ob 5346   1.121   1.887   4.383
    1MIN     Ob 5347   1.034   2.137   4.384
    1MIN     Ob 5348   1.296   2.083   4.362
    1MIN     Ob 5349   1.380   2.337   4.383
    1MIN     Ob 5350   1.294   2.588   4.384
    1MIN     Ob 5351   1.037   2.534   4.362
    1MIN    Sit 5352   1.243   2.769   3.777
    1MIN    Sit 5353   0.990   2.923   3.777
    1MIN    Sit 5354   0.984   3.219   3.777
    1MIN    Sit 5355   1.250   3.373   3.777
    1MIN     Ob 5356   1.359   2.875   3.732
    1MIN     Ob 5357   1.102   2.822   3.711
    1MIN     Ob 5358   1.015   3.072   3.712
    1MIN     Ob 5359   1.099   3.326   3.732
    1MIN     Ob 5360   1.361   3.272   3.711
    1MIN     Ob 5361   1.275   3.523   3.712
    1MIN    Mgo 5362   1.068   2.780   4.047
    1MIN    Alo 5363   1.068   3.080   4.047
    1MIN    Mgo 5364   1.328   3.231   4.047
    1MIN    Alo 5365   1.328   3.531   4.047
    1MIN    Omg 5366   1.229   2.756   3.941
    1MIN    Omg 5367   1.008   2.929   3.941
    1MIN    Omg 5368   1.128   2.931   4.154
    1MIN   Ohmg 5369   0.906   2.761   4.147
    1MIN    Omg 5370   0.969   3.207   3.941
    1MIN   Ohmg 5371   1.230   3.099   3.947
    1MIN   Ohmg 5372   1.165   3.212   4.147
    1MIN    Omg 5373   1.426   3.104   4.154
    1MIN    Omg 5374   1.268   3.379   3.941
    1MIN     Oh 5375   1.490   3.550   3.947
    1MIN    Omg 5376   1.387   3.382   4.154
    1MIN     Op 5377   1.167   3.555   4.154
    1MIN      H 5378   0.864   2.838   4.175
    1MIN      H 5379   1.275   3.022   3.925
    1MIN      H 5380   1.120   3.287   4.173
    1MIN      H 5381   1.536   3.472   3.925
    1MIN    Sit 5382   1.146   2.937   4.318
    1MIN    Sit 5383   1.412   3.091   4.318
    1MIN    Sit 5384   1.405   3.388   4.318
    1MIN    Sit 5385   1.152   3.542   4.318
    1MIN     Ob 5386   1.121   2.788   4.383
    1MIN     Ob 5387   1.034   3.038   4.384
    1MIN     Ob 5388   1.296   2.985   4.362
    1MIN     Ob 5389   1.380   3.239   4.383
    1MIN     Ob 5390   1.294   3.489   4.384
    1MIN     Ob 5391   1.037   3.435   4.362
    1MIN    Sit 5392   1.763   0.064   3.777
    1MIN    Sit 5393   1.510   0.218   3.777
    1MIN    Sit 5394   1.503   0.515   3.777
    1MIN    Sit 5395   1.769   0.669   3.777
    1MIN     Ob 5396   1.878   0.171   3.732
    1MIN     Ob 5397   1.621   0.117   3.711
    1MIN     Ob 5398   1.534   0.367   3.712
    1MIN     Ob 5399   1.619   0.621   3.732
    1MIN     Ob 5400   1.880   0.568   3.711
    1MIN     Ob 5401   1.794   0.818   3.712
    1MIN    Alo 5402   1.587   0.075   4.047
    1MIN    Alo 5403   1.587   0.375   4.047
    1MIN    Mgo 5404   1.847   0.526   4.047
    1MIN    Alo 5405   1.847   0.826   4.047
    1MIN     Op 5406   1.748   0.051   3.941
    1MIN     Op 5407   1.527   0.224   3.941
    1MIN     Op 5408   1.647   0.227   4.154
    1MIN     Oh 5409   1.425   0.057   4.147
    1MIN     Op 5410   1.488   0.502   3.941
    1MIN   Ohmg 5411   1.750   0.394   3.947
    1MIN   Ohmg 5412   1.684   0.507   4.147
    1MIN    Omg 5413   1.946   0.400   4.154
    1MIN    Omg 5414   1.787   0.675   3.941
    1MIN   Ohmg 5415   2.009   0.845   3.947
    1MIN    Omg 5416   1.907   0.677   4.154
    1MIN     Op 5417   1.686   0.850   4.154
    1MIN      H 5418   1.414   0.100   4.229
    1MIN      H 5419   1.795   0.318   3.922
    1MIN      H 5420   1.643   0.582   4.182
    1MIN      H 5421   2.051   0.767   3.924
    1MIN    Sit 5422   1.665   0.233   4.318
    1MIN    Sit 5423   1.931   0.387   4.318
    1MIN    Sit 5424   1.924   0.683   4.318
    1MIN    Sit 5425   1.671   0.838   4.318
    1MIN     Ob 5426   1.640   0.084   4.383
    1MIN     Ob 5427   1.553   0.334   4.384
    1MIN     Ob 5428   1.815   0.280   4.362
    1MIN     Ob 5429   1.900   0.534   4.383
    1MIN     Ob 5430   1.813   0.785   4.384
    1MIN     Ob 5431   1.556   0.731   4.362
    1MIN    Sit 5432   1.763   0.965   3.777
    1MIN    Sit 5433   1.510   1.120   3.777
    1MIN    Sit 5434   1.503   1.416   3.777
    1MIN    Sit 5435   1.769   1.570   3.777
    1MIN     Ob 5436   1.878   1.072   3.732
    1MIN     Ob 5437   1.621   1.018   3.711
    1MIN     Ob 5438   1.534   1.269   3.712
    1MIN     Ob 5439   1.619   1.523   3.732
    1MIN     Ob 5440   1.880   1.469   3.711
    1MIN     Ob 5441   1.794   1.719   3.712
    1MIN    Alo 5442   1.587   0.977   4.047
    1MIN    Alo 5443   1.587   1.277   4.047
    1MIN    Alo 5444   1.847   1.428   4.047
    1MIN    Alo 5445   1.847   1.728   4.047
    1MIN     Op 5446   1.748   0.953   3.941
    1MIN     Op 5447   1.527   1.126   3.941
    1MIN     Op 5448   1.647   1.128   4.154
    1MIN     Oh 5449   1.425   0.958   4.147
    1MIN    Omg 5450   1.488   1.404   3.941
    1MIN     Oh 5451   1.750   1.296   3.947
    1MIN     Oh 5452   1.684   1.409   4.147
    1MIN     Op 5453   1.946   1.301   4.154
    1MIN     Op 5454   1.787   1.576   3.941
    1MIN   Ohmg 5455   2.009   1.747   3.947
    1MIN     Op 5456   1.907   1.579   4.154
    1MIN    Omg 5457   1.686   1.752   4.154
    1MIN      H 5458   1.379   1.034   4.172
    1MIN      H 5459   1.791   1.222   3.912
    1MIN      H 5460   1.638   1.484   4.173
    1MIN      H 5461   2.052   1.670   3.920
    1MIN    Sit 5462   1.665   1.134   4.318
    1MIN    Sit 5463   1.931   1.288   4.318
    1MIN    Sit 5464   1.924   1.585   4.318
    1MIN    Sit 5465   1.671   1.739   4.318
    1MIN     Ob 5466   1.640   0.985   4.383
    1MIN     Ob 5467   1.553   1.235   4.384
    1MIN     Ob 5468   1.815   1.182   4.362
    1MIN     Ob 5469   1.900   1.436   4.383
    1MIN     Ob 5470   1.813   1.686   4.384
    1MIN     Ob 5471   1.556   1.632   4.362
    1MIN    Sit 5472   1.763   1.867   3.777
    1MIN    Sit 5473   1.510   2.021   3.777
    1MIN    Sit 5474   1.503   2.318   3.777
    1MIN    Sit 5475   1.769   2.472   3.777
    1MIN     Ob 5476   1.878   1.974   3.732
    1MIN     Ob 5477   1.621   1.920   3.711
    1MIN     Ob 5478   1.534   2.170   3.712
    1MIN     Ob 5479   1.619   2.424   3.732
    1MIN     Ob 5480   1.880   2.371   3.711
    1MIN     Ob 5481   1.794   2.621   3.712
    1MIN    Mgo 5482   1.587   1.878   4.047
    1MIN    Alo 5483   1.587   2.179   4.047
    1MIN    Mgo 5484   1.847   2.329   4.047
    1MIN    Alo 5485   1.847   2.629   4.047
    1MIN    Omg 5486   1.748   1.854   3.941
    1MIN    Omg 5487   1.527   2.027   3.941
    1MIN    Omg 5488   1.647   2.030   4.154
    1MIN   Ohmg 5489   1.425   1.860   4.147
    1MIN    Omg 5490   1.488   2.305   3.941
    1MIN   Ohmg 5491   1.750   2.197   3.947
    1MIN   Ohmg 5492   1.684   2.310   4.147
    1MIN    Omg 5493   1.946   2.203   4.154
    1MIN    Omg 5494   1.787   2.478   3.941
    1MIN   Ohmg 5495   2.009   2.648   3.947
    1MIN    Omg 5496   1.907   2.481   4.154
    1MIN    Omg 5497   1.686   2.653   4.154
    1MIN      H 5498   1.382   1.936   4.175
    1MIN      H 5499   1.792   2.117   3.932
    1MIN      H 5500   1.640   2.385   4.176
    1MIN      H 5501   2.053   2.569   3.930
    1MIN    Sit 5502   1.665   2.036   4.318
    1MIN    Sit 5503   1.931   2.190   4.318
    1MIN    Sit 5504   1.924   2.487   4.318
    1MIN    Sit 5505   1.671   2.641   4.318
    1MIN     Ob 5506   1.640   1.887   4.383
    1MIN     Ob 5507   1.553   2.137   4.384
    1MIN     Ob 5508   1.815   2.083   4.362
    1MIN     Ob 5509   1.900   2.337   4.383
    1MIN     Ob 5510   1.813   2.588   4.384
    1MIN     Ob 5511   1.556   2.534   4.362
    1MIN    Sit 5512   1.763   2.769   3.777
    1MIN    Sit 5513   1.510   2.923   3.777
    1MIN    Sit 5514   1.503   3.219   3.777
    1MIN    Sit 5515   1.769   3.373   3.777
    1MIN     Ob 5516   1.878   2.875   3.732
    1MIN     Ob 5517   1.621   2.822   3.711
    1MIN     Ob 5518   1.534   3.072   3.712
    1MIN     Ob 5519   1.619   3.326   3.732
    1MIN     Ob 5520   1.880   3.272   3.711
    1MIN     Ob 5521   1.794   3.523   3.712
    1MIN    Mgo 5522   1.587   2.780   4.047
    1MIN    Alo 5523   1.587   3.080   4.047
    1MIN    Mgo 5524   1.847   3.231   4.047
    1MIN    Alo 5525   1.847   3.531   4.047
    1MIN    Omg 5526   1.748   2.756   3.941
    1MIN    Omg 5527   1.527   2.929   3.941
    1MIN    Omg 5528   1.647   2.931   4.154
    1MIN   Ohmg 5529   1.425   2.761   4.147
    1MIN    Omg 5530   1.488   3.207   3.941
    1MIN   Ohmg 5531   1.750   3.099   3.947
    1MIN   Ohmg 5532   1.684   3.212   4.147
    1MIN    Omg 5533   1.946   3.104   4.154
    1MIN    Omg 5534   1.787   3.379   3.941
    1MIN   Ohmg 5535   2.009   3.550   3.947
    1MIN    Omg 5536   1.907   3.382   4.154
    1MIN     Op 5537   1.686   3.555   4.154
    1MIN      H 5538   1.380   2.837   4.175
    1MIN      H 5539   1.794   3.020   3.931
    1MIN      H 5540   1.640   3.286   4.179
    1MIN      H 5541   2.077   3.489   3.968
    1MIN    Sit 5542   1.665   2.937   4.318
    1MIN    Sit 5543   1.931   3.091   4.318
    1MIN    Sit 5544   1.924   3.388   4.318
    1MIN    Sit 5545   1.671   3.542   4.318
    1MIN     Ob 5546   1.640   2.788   4.383
    1MIN     Ob 5547   1.553   3.038   4.384
    1MIN     Ob 5548   1.815   2.985   4.362
    1MIN     Ob 5549   1.900   3.239   4.383
    1MIN     Ob 5550   1.813   3.489   4.384
    1MIN     Ob 5551   1.556   3.435   4.362
    1MIN    Sit 5552   2.282   0.064   3.777
    1MIN    Sit 5553   2.029   0.218   3.777
    1MIN    Sit 5554   2.022   0.515   3.777
    1MIN    Sit 5555   2.288   0.669   3.777
    1MIN     Ob 5556   2.397   0.171   3.732
    1MIN     Ob 5557   2.140   0.117   3.711
    1MIN     Ob 5558   2.054   0.367   3.712
    1MIN     Ob 5559   2.138   0.621   3.732
    1MIN     Ob 5560   2.400   0.568   3.711
    1MIN     Ob 5561   2.313   0.818   3.712
    1MIN    Mgo 5562   2.106   0.075   4.047
    1MIN    Alo 5563   2.106   0.375   4.047
    1MIN    Alo 5564   2.366   0.526   4.047
    1MIN    Alo 5565   2.366   0.826   4.047
    1MIN    Omg 5566   2.267   0.051   3.941
    1MIN    Omg 5567   2.047   0.224   3.941
    1MIN    Omg 5568   2.166   0.227   4.154
    1MIN   Ohmg 5569   1.944   0.057   4.147
    1MIN    Omg 5570   2.008   0.502   3.941
    1MIN     Oh 5571   2.269   0.394   3.947
    1MIN     Oh 5572   2.204   0.507   4.147
    1MIN     Op 5573   2.465   0.400   4.154
    1MIN     Op 5574   2.306   0.675   3.941
    1MIN   Ohmg 5575   2.528   0.845   3.947
    1MIN     Op 5576   2.426   0.677   4.154
    1MIN    Omg 5577   2.205   0.850   4.154
    1MIN      H 5578   1.914   0.127   4.200
    1MIN      H 5579   2.311   0.315   3.928
    1MIN      H 5580   2.158   0.581   4.178
    1MIN      H 5581   2.573   0.769   3.922
    1MIN    Sit 5582   2.184   0.233   4.318
    1MIN    Sit 5583   2.450   0.387   4.318
    1MIN    Sit 5584   2.443   0.683   4.318
    1MIN    Sit 5585   2.191   0.838   4.318
    1MIN     Ob 5586   2.159   0.084   4.383
    1MIN     Ob 5587   2.073   0.334   4.384
    1MIN     Ob 5588   2.335   0.280   4.362
    1MIN     Ob 5589   2.419   0.534   4.383
    1MIN     Ob 5590   2.332   0.785   4.384
    1MIN     Ob 5591   2.075   0.731   4.362
    1MIN    Sit 5592   2.282   0.965   3.777
    1MIN    Sit 5593   2.029   1.120   3.777
    1MIN    Sit 5594   2.022   1.416   3.777
    1MIN    Sit 5595   2.288   1.570   3.777
    1MIN     Ob 5596   2.397   1.072   3.732
    1MIN     Ob 5597   2.140   1.018   3.711
    1MIN     Ob 5598   2.054   1.269   3.712
    1MIN     Ob 5599   2.138   1.523   3.732
    1MIN     Ob 5600   2.400   1.469   3.711
    1MIN     Ob 5601   2.313   1.719   3.712
    1MIN    Mgo 5602   2.106   0.977   4.047
    1MIN    Alo 5603   2.106   1.277   4.047
    1MIN    Alo 5604   2.366   1.428   4.047
    1MIN    Alo 5605   2.366   1.728   4.047
    1MIN    Omg 5606   2.267   0.953   3.941
    1MIN    Omg 5607   2.047   1.126   3.941
    1MIN    Omg 5608   2.166   1.128   4.154
    1MIN   Ohmg 5609   1.944   0.958   4.147
    1MIN     Op 5610   2.008   1.404   3.941
    1MIN     Oh 5611   2.269   1.296   3.947
    1MIN     Oh 5612   2.204   1.409   4.147
    1MIN     Op 5613   2.465   1.301   4.154
    1MIN     Op 5614   2.306   1.576   3.941
    1MIN   Ohmg 5615   2.528   1.747   3.947
    1MIN     Op 5616   2.426   1.579   4.154
    1MIN    Omg 5617   2.205   1.752   4.154
    1MIN      H 5618   1.901   1.031   4.183
    1MIN      H 5619   2.312   1.218   3.924
    1MIN      H 5620   2.161   1.482   4.182
    1MIN      H 5621   2.574   1.670   3.925
    1MIN    Sit 5622   2.184   1.134   4.318
    1MIN    Sit 5623   2.450   1.288   4.318
    1MIN    Sit 5624   2.443   1.585   4.318
    1MIN    Sit 5625   2.191   1.739   4.318
    1MIN     Ob 5626   2.159   0.985   4.383
    1MIN     Ob 5627   2.073   1.235   4.384
    1MIN     Ob 5628   2.335   1.182   4.362
    1MIN     Ob 5629   2.419   1.436   4.383
    1MIN     Ob 5630   2.332   1.686   4.384
    1MIN     Ob 5631   2.075   1.632   4.362
    1MIN    Sit 5632   2.282   1.867   3.777
    1MIN    Sit 5633   2.029   2.021   3.777
    1MIN    Sit 5634   2.022   2.318   3.777
    1MIN    Sit 5635   2.288   2.472   3.777
    1MIN     Ob 5636   2.397   1.974   3.732
    1MIN     Ob 5637   2.140   1.920   3.711
    1MIN     Ob 5638   2.054   2.170   3.712
    1MIN     Ob 5639   2.138   2.424   3.732
    1MIN     Ob 5640   2.400   2.371   3.711
    1MIN     Ob 5641   2.313   2.621   3.712
    1MIN    Mgo 5642   2.106   1.878   4.047
    1MIN    Alo 5643   2.106   2.179   4.047
    1MIN    Alo 5644   2.366   2.329   4.047
    1MIN    Alo 5645   2.366   2.629   4.047
    1MIN    Omg 5646   2.267   1.854   3.941
    1MIN    Omg 5647   2.047   2.027   3.941
    1MIN    Omg 5648   2.166   2.030   4.154
    1MIN   Ohmg 5649   1.944   1.860   4.147
    1MIN    Omg 5650   2.008   2.305   3.941
    1MIN     Oh 5651   2.269   2.197   3.947
    1MIN     Oh 5652   2.204   2.310   4.147
    1MIN     Op 5653   2.465   2.203   4.154
    1MIN     Op 5654   2.306   2.478   3.941
    1MIN   Ohmg 5655   2.528   2.648   3.947
    1MIN     Op 5656   2.426   2.481   4.154
    1MIN    Omg 5657   2.205   2.653   4.154
    1MIN      H 5658   1.898   1.936   4.172
    1MIN      H 5659   2.312   2.120   3.924
    1MIN      H 5660   2.159   2.385   4.178
    1MIN      H 5661   2.574   2.571   3.926
    1MIN    Sit 5662   2.184   2.036   4.318
    1MIN    Sit 5663   2.450   2.190   4.318
    1MIN    Sit 5664   2.443   2.487   4.318
    1MIN    Sit 5665   2.191   2.641   4.318
    1MIN     Ob 5666   2.159   1.887   4.383
    1MIN     Ob 5667   2.073   2.137   4.384
    1MIN     Ob 5668   2.335   2.083   4.362
    1MIN     Ob 5669   2.419   2.337   4.383
    1MIN     Ob 5670   2.332   2.588   4.384
    1MIN     Ob 5671   2.075   2.534   4.362
    1MIN    Sit 5672   2.282   2.769   3.777
    1MIN    Sit 5673   2.029   2.923   3.777
    1MIN    Sit 5674   2.022   3.219   3.777
    1MIN    Sit 5675   2.288   3.373   3.777
    1MIN     Ob 5676   2.397   2.875   3.732
    1MIN     Ob 5677   2.140   2.822   3.711
    1MIN     Ob 5678   2.054   3.072   3.712
    1MIN     Ob 5679   2.138   3.326   3.732
    1MIN     Ob 5680   2.400   3.272   3.711
    1MIN     Ob 5681   2.313   3.523   3.712
    1MIN    Mgo 5682   2.106   2.780   4.047
    1MIN    Alo 5683   2.106   3.080   4.047
    1MIN    Mgo 5684   2.366   3.231   4.047
    1MIN    Alo 5685   2.366   3.531   4.047
    1MIN    Omg 5686   2.267   2.756   3.941
    1MIN    Omg 5687   2.047   2.929   3.941
    1MIN    Omg 5688   2.166   2.931   4.154
    1MIN   Ohmg 5689   1.944   2.761   4.147
    1MIN    Omg 5690   2.008   3.207   3.941
    1MIN   Ohmg 5691   2.269   3.099   3.947
    1MIN   Ohmg 5692   2.204   3.212   4.147
    1MIN    Omg 5693   2.465   3.104   4.154
    1MIN    Omg 5694   2.306   3.379   3.941
    1MIN   Ohmg 5695   2.528   3.550   3.947
    1MIN    Omg 5696   2.426   3.382   4.154
    1MIN    Omg 5697   2.205   3.555   4.154
    1MIN      H 5698   1.899   2.837   4.173
    1MIN      H 5699   2.314   3.019   3.936
    1MIN      H 5700   2.159   3.286   4.179
    1MIN      H 5701   2.594   3.484   3.961
    1MIN    Sit 5702   2.184   2.937   4.318
    1MIN    Sit 5703   2.450   3.091   4.318
    1MIN    Sit 5704   2.443   3.388   4.318
    1MIN    Sit 5705   2.191   3.542   4.318
    1MIN     Ob 5706   2.159   2.788   4.383
    1MIN     Ob 5707   2.073   3.038   4.384
    1MIN     Ob 5708   2.335   2.985   4.362
    1MIN     Ob 5709   2.419   3.239   4.383
    1MIN     Ob 5710   2.332   3.489   4.384
    1MIN     Ob 5711   2.075   3.435   4.362
    1MIN    Sit 5712   2.801   0.064   3.777
    1MIN    Sit 5713   2.548   0.218   3.777
    1MIN    Sit 5714   2.541   0.515   3.777
    1MIN    Sit 5715   2.808   0.669   3.777
    1MIN     Ob 5716   2.916   0.171   3.732
    1MIN     Ob 5717   2.659   0.117   3.711
    1MIN     Ob 5718   2.573   0.367   3.712
    1MIN     Ob 5719   2.657   0.621   3.732
    1MIN     Ob 5720   2.919   0.568   3.711
    1MIN     Ob 5721   2.832   0.818   3.712
    1MIN    Mgo 5722   2.626   0.075   4.047
    1MIN    Alo 5723   2.625   0.375   4.047
    1MIN    Alo 5724   2.885   0.526   4.047
    1MIN    Alo 5725   2.885   0.826   4.047
    1MIN    Omg 5726   2.786   0.051   3.941
    1MIN    Omg 5727   2.566   0.224   3.941
    1MIN    Omg 5728   2.685   0.227   4.154
    1MIN   Ohmg 5729   2.463   0.057   4.147
    1MIN     Op 5730   2.527   0.502   3.941
    1MIN     Oh 5731   2.788   0.394   3.947
    1MIN     Oh 5732   2.723   0.507   4.147
    1MIN     Op 5733   2.984   0.400   4.154
    1MIN     Op 5734   2.825   0.675   3.941
    1MIN     Oh 5735   3.048   0.845   3.947
    1MIN     Op 5736   2.945   0.677   4.154
    1MIN    Omg 5737   2.724   0.850   4.154
    1MIN      H 5738   2.409   0.129   4.168
    1MIN      H 5739   2.831   0.315   3.928
    1MIN      H 5740   2.680   0.580   4.185
    1MIN      H 5741   3.108   0.774   3.948
    1MIN    Sit 5742   2.703   0.233   4.318
    1MIN    Sit 5743   2.969   0.387   4.318
    1MIN    Sit 5744   2.963   0.683   4.318
    1MIN    Sit 5745   2.710   0.838   4.318
    1MIN     Ob 5746   2.678   0.084   4.383
    1MIN     Ob 5747   2.592   0.334   4.384
    1MIN     Ob 5748   2.854   0.280   4.362
    1MIN     Ob 5749   2.938   0.534   4.383
    1MIN     Ob 5750   2.851   0.785   4.384
    1MIN     Ob 5751   2.594   0.731   4.362
    1MIN    Sit 5752   2.801   0.965   3.777
    1MIN    Sit 5753   2.548   1.120   3.777
    1MIN    Sit 5754   2.541   1.416   3.777
    1MIN    Sit 5755   2.808   1.570   3.777
    1MIN     Ob 5756   2.916   1.072   3.732
    1MIN     Ob 5757   2.659   1.018   3.711
    1MIN     Ob 5758   2.573   1.269   3.712
    1MIN     Ob 5759   2.657   1.523   3.732
    1MIN     Ob 5760   2.919   1.469   3.711
    1MIN     Ob 5761   2.832   1.719   3.712
    1MIN    Mgo 5762   2.626   0.977   4.047
    1MIN    Alo 5763   2.625   1.277   4.047
    1MIN    Mgo 5764   2.885   1.428   4.047
    1MIN    Alo 5765   2.885   1.728   4.047
    1MIN    Omg 5766   2.786   0.953   3.941
    1MIN    Omg 5767   2.566   1.126   3.941
    1MIN    Omg 5768   2.685   1.128   4.154
    1MIN   Ohmg 5769   2.463   0.958   4.147
    1MIN     Op 5770   2.527   1.404   3.941
    1MIN   Ohmg 5771   2.788   1.296   3.947
    1MIN   Ohmg 5772   2.723   1.409   4.147
    1MIN    Omg 5773   2.984   1.301   4.154
    1MIN    Omg 5774   2.825   1.576   3.941
    1MIN     Oh 5775   3.048   1.747   3.947
    1MIN    Omg 5776   2.945   1.579   4.154
    1MIN    Omg 5777   2.724   1.752   4.154
    1MIN      H 5778   2.419   1.032   4.180
    1MIN      H 5779   2.830   1.219   3.919
    1MIN      H 5780   2.679   1.484   4.176
    1MIN      H 5781   3.102   1.670   3.945
    1MIN    Sit 5782   2.703   1.134   4.318
    1MIN    Sit 5783   2.969   1.288   4.318
    1MIN    Sit 5784   2.963   1.585   4.318
    1MIN    Sit 5785   2.710   1.739   4.318
    1MIN     Ob 5786   2.678   0.985   4.383
    1MIN     Ob 5787   2.592   1.235   4.384
    1MIN     Ob 5788   2.854   1.182   4.362
    1MIN     Ob 5789   2.938   1.436   4.383
    1MIN     Ob 5790   2.851   1.686   4.384
    1MIN     Ob 5791   2.594   1.632   4.362
    1MIN    Sit 5792   2.801   1.867   3.777
    1MIN    Sit 5793   2.548   2.021   3.777
    1MIN    Sit 5794   2.541   2.318   3.777
    1MIN    Sit 5795   2.808   2.472   3.777
    1MIN     Ob 5796   2.916   1.974   3.732
    1MIN     Ob 5797   2.659   1.920   3.711
    1MIN     Ob 5798   2.573   2.170   3.712
    1MIN     Ob 5799   2.657   2.424   3.732
    1MIN     Ob 5800   2.919   2.371   3.711
    1MIN     Ob 5801   2.832   2.621   3.712
    1MIN    Mgo 5802   2.626   1.878   4.047
    1MIN    Alo 5803   2.625   2.179   4.047
    1MIN    Mgo 5804   2.885   2.329   4.047
    1MIN    Alo 5805   2.885   2.629   4.047
    1MIN    Omg 5806   2.786   1.854   3.941
    1MIN    Omg 5807   2.566   2.027   3.941
    1MIN    Omg 5808   2.685   2.030   4.154
    1MIN   Ohmg 5809   2.463   1.860   4.147
    1MIN     Op 5810   2.527   2.305   3.941
    1MIN   Ohmg 5811   2.788   2.197   3.947
    1MIN   Ohmg 5812   2.723   2.310   4.147
    1MIN    Omg 5813   2.984   2.203   4.154
    1MIN    Omg 5814   2.825   2.478   3.941
    1MIN   Ohmg 5815   3.048   2.648   3.947
    1MIN    Omg 5816   2.945   2.481   4.154
    1MIN    Omg 5817   2.724   2.653   4.154
    1MIN      H 5818   2.419   1.934   4.178
    1MIN      H 5819   2.831   2.118   3.929
    1MIN      H 5820   2.681   2.385   4.182
    1MIN      H 5821   3.116   2.591   3.974
    1MIN    Sit 5822   2.703   2.036   4.318
    1MIN    Sit 5823   2.969   2.190   4.318
    1MIN    Sit 5824   2.963   2.487   4.318
    1MIN    Sit 5825   2.710   2.641   4.318
    1MIN     Ob 5826   2.678   1.887   4.383
    1MIN     Ob 5827   2.592   2.137   4.384
    1MIN     Ob 5828   2.854   2.083   4.362
    1MIN     Ob 5829   2.938   2.337   4.383
    1MIN     Ob 5830   2.851   2.588   4.384
    1MIN     Ob 5831   2.594   2.534   4.362
    1MIN    Sit 5832   2.801   2.769   3.777
    1MIN    Sit 5833   2.548   2.923   3.777
    1MIN    Sit 5834   2.541   3.219   3.777
    1MIN    Sit 5835   2.808   3.373   3.777
    1MIN     Ob 5836   2.916   2.875   3.732
    1MIN     Ob 5837   2.659   2.822   3.711
    1MIN     Ob 5838   2.573   3.072   3.712
    1MIN     Ob 5839   2.657   3.326   3.732
    1MIN     Ob 5840   2.919   3.272   3.711
    1MIN     Ob 5841   2.832   3.523   3.712
    1MIN    Mgo 5842   2.626   2.780   4.047
    1MIN    Alo 5843   2.625   3.080   4.047
    1MIN    Mgo 5844   2.885   3.231   4.047
    1MIN    Alo 5845   2.885   3.531   4.047
    1MIN    Omg 5846   2.786   2.756   3.941
    1MIN    Omg 5847   2.566   2.929   3.941
    1MIN    Omg 5848   2.685   2.931   4.154
    1MIN   Ohmg 5849   2.463   2.761   4.147
    1MIN    Omg 5850   2.527   3.207   3.941
    1MIN   Ohmg 5851   2.788   3.099   3.947
    1MIN   Ohmg 5852   2.723   3.212   4.147
    1MIN    Omg 5853   2.984   3.104   4.154
    1MIN    Omg 5854   2.825   3.379   3.941
    1MIN   Ohmg 5855   3.048   3.550   3.947
    1MIN    Omg 5856   2.945   3.382   4.154
    1MIN    Omg 5857   2.724   3.555   4.154
    1MIN      H 5858   2.419   2.836   4.178
    1MIN      H 5859   2.832   3.021   3.929
    1MIN      H 5860   2.678   3.288   4.173
    1MIN      H 5861   3.113   3.484   3.962
    1MIN    Sit 5862   2.703   2.937   4.318
    1MIN    Sit 5863   2.969   3.091   4.318
    1MIN    Sit 5864   2.963   3.388   4.318
    1MIN    Sit 5865   2.710   3.542   4.318
    1MIN     Ob 5866   2.678   2.788   4.383
    1MIN     Ob 5867   2.592   3.038   4.384
    1MIN     Ob 5868   2.854   2.985   4.362
    1MIN     Ob 5869   2.938   3.239   4.383
    1MIN     Ob 5870   2.851   3.489   4.384
    1MIN     Ob 5871   2.594   3.435   4.362
    2Na      Na 5872   1.839   2.389   2.582
    3Na      Na 5873   2.358   1.487   2.582
    4Na      Na 5874   2.258   0.586   3.579
    5Na      Na 5875   2.518   2.840   3.579
    6Na      Na 5876   0.860   1.037   4.577
    7Na      Na 5877   1.320   0.586   2.582
    8Na      Na 5878   2.099   1.938   2.582
    9Na      Na 5879   1.580   0.135   2.582
   10Na      Na 5880   1.739   2.389   3.579
   11Na      Na 5881   0.601   1.487   4.577
   12Na      Na 5882   1.999   1.938   3.579
   13Na      Na 5883   1.898   1.938   4.577
   14Na      Na 5884  -0.078   0.135   3.579
   15Na      Na 5885   0.182   2.389   3.579
   16Na      Na 5886  -0.178   2.840   4.577
   17Na      Na 5887   0.182   0.586   3.579
   18Na      Na 5888   0.541   1.938   2.582
   19Na      Na 5889   1.479   2.840   3.579
   20Na      Na 5890   0.801   1.487   2.582
   21Na      Na 5891   2.258   3.290   3.579
   22Na      Na 5892   2.677   3.290   4.577
   23Na      Na 5893   0.860   2.840   4.577
   24Na      Na 5894   1.320   2.389   2.582
   25Na      Na 5895   0.541   0.135   2.582
   26Na      Na 5896   0.960   1.938   3.579
   27Na      Na 5897   0.022   1.037   2.582
   28Na      Na 5898   2.518   0.135   3.579
   29Na      Na 5899   0.022   2.840   2.582
   30Na      Na 5900   0.701   2.389   3.579
   31Na      Na 5901   1.120   3.290   4.577
   32Na      Na 5902   0.182   1.487   3.579
   33Na      Na 5903   1.898   2.840   4.577
   34Na      Na 5904   2.618   1.037   2.582
   35Na      Na 5905   0.960   0.135   3.579
   36Na      Na 5906  -0.178   0.135   4.577
   37Na      Na 5907   0.022   0.135   2.582
   38Na      Na 5908   1.580   1.037   2.582
   39Na      Na 5909   0.282   2.389   2.582
   40Na      Na 5910   0.541   1.037   2.582
   41Na      Na 5911   2.618   0.135   2.582
   42Na      Na 5912   1.999   1.037   3.579
   43Na      Na 5913   1.120   1.487   4.577
   44Na      Na 5914  -0.078   2.840   3.579
   45Na      Na 5915   0.081   1.487   4.577
   46Na      Na 5916   1.120   2.389   4.577
   47Na      Na 5917   2.258   1.487   3.579
   48Na      Na 5918   0.441   1.938   3.579
   49Na      Na 5919   2.677   1.487   4.577
   50Na      Na 5920   1.795   2.119   3.518
   51Na      Na 5921   1.736   3.471   1.523
   52Na      Na 5922   0.238   0.316   3.518
   53Na      Na 5923   1.995   0.316   1.523
   54Na      Na 5924   3.093   0.766   3.518
   55Na      Na 5925   1.895   1.217   2.521
   56Na      Na 5926   2.515   3.020   1.523
   57Na      Na 5927   0.697   2.569   1.523
   58Na      Na 5928   0.757   3.020   3.518
   59Na      Na 5929   2.255   2.569   1.523
   60Na      Na 5930   2.314   3.020   3.518
   61Na      Na 5931   0.238   2.119   3.518
   62Na      Na 5932   2.414   2.119   2.521
   63Na      Na 5933   2.155   1.668   2.521
   64Na      Na 5934   2.833   2.119   3.518
   65Na      Na 5935   2.155   2.569   2.521
   66Na      Na 5936   1.895   0.316   2.521
   67Na      Na 5937   3.034   0.316   1.523
   68Na      Na 5938   0.857   3.020   2.521
   69Na      Na 5939   3.093   3.471   3.518
   70Na      Na 5940   2.515   2.119   1.523
   71Na      Na 5941   1.016   2.569   3.518
   72Na      Na 5942   3.293   3.471   1.523
   73Na      Na 5943   0.438   3.020   1.523
   74Na      Na 5944   2.055   2.569   3.518
   75Na      Na 5945   3.193   1.668   2.521
   76Na      Na 5946   2.574   0.766   3.518
   77Na      Na 5947   1.995   3.020   1.523
   78Na      Na 5948   2.934   3.020   2.521
   79Na      Na 5949   3.034   3.020   1.523
   80Na      Na 5950   2.934   1.217   2.521
   81Na      Na 5951   1.795   3.020   3.518
   82Na      Na 5952   2.574   1.668   3.518
   83Na      Na 5953   3.093   1.668   3.518
   84Na      Na 5954   0.597   2.569   2.521
   85Na      Na 5955   3.093   2.569   3.518
   86Na      Na 5956   0.438   1.217   1.523
   87Na      Na 5957   0.238   3.020   3.518
   88Na      Na 5958   0.757   2.119   3.518
   89Na      Na 5959   2.155   0.766   2.521
   90Na      Na 5960   0.957   3.020   1.523
   91Na      Na 5961   1.376   1.217   2.521
   92Na      Na 5962   0.857   0.316   2.521
   93Na      Na 5963   2.055   3.471   3.518
   94Na      Na 5964   1.795   0.316   3.518
   95Na      Na 5965   1.476   1.217   1.523
   96Na      Na 5966   0.857   1.217   2.521
   97Na      Na 5967   1.476   3.020   1.523
    3.11508    3.60612    6.10000    0.00000    0.00000    0.00000    0.00000    0.00000    0.00000
